{"Citation":{"sPage":"2584-2591","eType":"journal","sVol":"62","dateCit":"2020-09-29","sIDNum":"9","yrPubYr":"2017","sPubName":"J. Chem. Eng. Data","sAbstract":"An experimental and computational study of the thermochemical and structural properties of ethylenethiourea (ETU) has been carried out. The enthalpies of combustion and sublimation, measured respectively by rotating-bomb combustion calorimetry and Calvet microcalorimetry, yielded the gas-phase enthalpy of formation of ETU at T = 298.15 K. This latter parameter was also derived from high-level molecular orbital calculations at the G3(MP2)//B3LYP level of theory, leading to a value in excellent agreement with the one obtained from experimental data. With the purpose of evaluating the influence of the ring size in the enthalpy of formation of cyclic N,N'-thiourea derivatives, the calculation of the enthalpy of formation of N,N'-trimethylenethiourea (MTU) was performed using the G3(MP2)//B3LYP approach. The effects of substituents (carbonyl and thiocarbonyl) on the molecular stability of several N-alkyl (cyclic) ureas/thioureas were also studied.","TRCRefID":{"yrYrPub":"2017","sAuthor1":"sil","sAuthor2":"rib","tml_elements":["yrYrPub","sAuthor1","sAuthor2","nAuthorn"],"nAuthorn":"0"},"sTitle":"Comprehensive Thermochemical Study of Cyclic Five- and Six-Membered N,N'-Thioureas","sDOI":"10.1021/acs.jced.7b00083","tml_elements":["TRCRefID","eType","eSourceType","sAuthor","sPubName","yrPubYr","dateCit","sTitle","sAbstract","sKeyword","sDOI","sIDNum","sVol","sPage"],"sKeyword":["Ethylenethiourea","Cyclic thiourea","Enthalpy of combustion","Enthalpy of sublimation","Enthalpy of formation","Combustion calorimetry","Calvet microcalorimetry","G3(MP2)//B3LYP method"],"sAuthor":["Silva, A. L. R.[Ana L.R.]","Ribeiro da Silva, M. D. M. C.[Maria D.M.C.]"],"eSourceType":"Original"},"Version":{"tml_elements":["nVersionMajor","nVersionMinor"],"nVersionMinor":0,"nVersionMajor":2},"Compound":[{"sStandardInChIKey":"QAOWNCQODCNURD-UHFFFAOYSA-N","RegNum":{"tml_elements":["nOrgNum"],"nOrgNum":1},"sStandardInChI":"InChI=1S/H2O4S/c1-5(2,3)4/h(H2,1,2,3,4)","tml_elements":["RegNum","sStandardInChI","sStandardInChIKey","sCommonName","sFormulaMolec"],"sCommonName":["sulfuric acid"],"sFormulaMolec":"H2O4S"},{"tml_elements":["RegNum","sStandardInChI","sStandardInChIKey","sCommonName","sFormulaMolec"],"sCommonName":["carbon dioxide"],"sFormulaMolec":"CO2","RegNum":{"nOrgNum":2,"tml_elements":["nOrgNum"]},"sStandardInChI":"InChI=1S/CO2/c2-1-3","sStandardInChIKey":"CURLTUGMZLYLDI-UHFFFAOYSA-N"},{"sFormulaMolec":"N2","sStandardInChIKey":"IJGRMHOSHXDMSA-UHFFFAOYSA-N","sCommonName":["nitrogen"],"tml_elements":["RegNum","sStandardInChI","sStandardInChIKey","sCommonName","sFormulaMolec"],"sStandardInChI":"InChI=1S/N2/c1-2","RegNum":{"tml_elements":["nOrgNum"],"nOrgNum":3}},{"sCommonName":["water"],"tml_elements":["RegNum","sStandardInChI","sStandardInChIKey","sCommonName","sFormulaMolec"],"sFormulaMolec":"H2O","RegNum":{"tml_elements":["nOrgNum"],"nOrgNum":4},"sStandardInChI":"InChI=1S/H2O/h1H2","sStandardInChIKey":"XLYOFNOQVPJJNP-UHFFFAOYSA-N"},{"sCommonName":["oxygen"],"tml_elements":["RegNum","sStandardInChI","sStandardInChIKey","sCommonName","sFormulaMolec"],"sFormulaMolec":"O2","sStandardInChIKey":"MYMOFIZGZYHOMD-UHFFFAOYSA-N","RegNum":{"tml_elements":["nOrgNum"],"nOrgNum":5},"sStandardInChI":"InChI=1S/O2/c1-2"},{"sFormulaMolec":"C3H6N2S","sCommonName":["imidazolidine-2-thione","ethylenethiourea","imidazoline-2-thiol"],"tml_elements":["RegNum","sStandardInChI","sStandardInChIKey","sCommonName","sFormulaMolec","Sample"],"Sample":[{"tml_elements":["nSampleNm","eSource","purity"],"purity":[{"nUnknownPerCentDigits":3,"nUnknownPerCent":98,"eAnalMeth":["Stated by supplier"],"nStep":1,"tml_elements":["nStep","nUnknownPerCent","nUnknownPerCentDigits","eAnalMeth"]},{"ePurifMethod":["Sublimation"],"tml_elements":["nStep","ePurifMethod"],"nStep":2},{"nPurityMass":99.99,"eAnalMeth":["Gas chromatography"],"nStep":3,"tml_elements":["nStep","nPurityMass","nPurityMassDigits","eAnalMeth"],"nPurityMassDigits":4}],"nSampleNm":1,"eSource":"Commercial source"}],"sStandardInChI":"InChI=1S/C3H6N2S/c6-3-4-1-2-5-3/h1-2H2,(H2,4,5,6)","RegNum":{"tml_elements":["nOrgNum"],"nOrgNum":6},"sStandardInChIKey":"PDQAZBWRQCGBEV-UHFFFAOYSA-N"}],"THERMOML_MD5_CHECKSUM":"509d9042538ab733af037e33f534b2dd","PureOrMixtureData":[{"dateDateAdded":"3/28/2017","nPureOrMixtureDataNumber":1,"sCompiler":"EP","NumValues":[{"tml_elements":["VariableValue","PropertyValue"],"PropertyValue":[{"nPropValue":107.4,"CombinedUncertainty":{"nCombUncertAssessNum":1,"nCombExpandUncertValue":1.5,"tml_elements":["nCombUncertAssessNum","nCombExpandUncertValue"]},"nPropNumber":1,"nPropDigits":4,"tml_elements":["nPropNumber","nPropValue","nPropDigits","CombinedUncertainty"]}],"VariableValue":[{"tml_elements":["nVarNumber","nVarValue","nVarDigits"],"nVarDigits":5,"nVarNumber":1,"nVarValue":298.15}]}],"eExpPurpose":"Principal objective of the work","Property":[{"tml_elements":["nPropNumber","Property-MethodID","PropPhaseID","ePresentation","CombinedUncertainty"],"ePresentation":"Direct value, X","nPropNumber":1,"PropPhaseID":{"ePropPhase":"Crystal","tml_elements":["ePropPhase"]},"Property-MethodID":{"tml_elements":["PropertyGroup"],"PropertyGroup":{"tml_elements":["PhaseTransition"],"PhaseTransition":{"tml_elements":["ePropName","eMethodName"],"eMethodName":"Static calorimetry","ePropName":"Molar enthalpy of vaporization or sublimation, kJ/mol"}}},"CombinedUncertainty":{"nCombUncertAssessNum":1,"sCombUncertEvaluator":"Data file compiler","tml_elements":["nCombUncertAssessNum","sCombUncertEvaluator","eCombUncertEvalMethod","nCombUncertLevOfConfid"],"nCombUncertLevOfConfid":95,"eCombUncertEvalMethod":"Propagation of evaluated standard uncertainties"}}],"sContributor":"EP","Variable":[{"VariableID":{"tml_elements":["VariableType"],"VariableType":{"eTemperature":"Temperature, K","tml_elements":["eTemperature"]}},"tml_elements":["nVarNumber","VariableID","VarPhaseID"],"nVarNumber":1,"VarPhaseID":{"eVarPhase":"Crystal","tml_elements":["eVarPhase"]}}],"tml_elements":["nPureOrMixtureDataNumber","Component","eExpPurpose","sCompiler","sContributor","dateDateAdded","Property","PhaseID","Variable","NumValues"],"PhaseID":[{"tml_elements":["ePhase"],"ePhase":"Crystal"},{"ePhase":"Gas","tml_elements":["ePhase"]}],"Component":[{"nSampleNm":1,"RegNum":{"tml_elements":["nOrgNum"],"nOrgNum":6},"tml_elements":["RegNum","nSampleNm"]}]}],"ReactionData":[{"NumValues":[{"tml_elements":["PropertyValue"],"PropertyValue":[{"nPropValue":-25436.98,"CombinedUncertainty":{"nCombUncertAssessNum":1,"nCombExpandUncertValue":17.04,"tml_elements":["nCombUncertAssessNum","nCombExpandUncertValue"]},"tml_elements":["nPropNumber","nPropValue","nPropDigits","CombinedUncertainty"],"nPropNumber":1,"nPropDigits":7}],"VariableValue":[]}],"dateDateAdded":"3/28/2017","sCompiler":"EP","eExpPurpose":"Principal objective of the work","Property":[{"nPropNumber":1,"tml_elements":["nPropNumber","Property-MethodID","nTemperature-K","nTemperatureDigits","nPressure-kPa","nPressureDigits","CombinedUncertainty"],"Property-MethodID":{"PropertyGroup":{"ReactionStateChangeProp":{"tml_elements":["ePropName","eMethodName"],"eMethodName":"Rotating bomb calorimetry","ePropName":"Specific internal energy of reaction at constant volume, J/g"},"tml_elements":["ReactionStateChangeProp"]},"tml_elements":["PropertyGroup"]},"nTemperatureDigits":5,"CombinedUncertainty":{"eCombUncertEvalMethod":"Propagation of evaluated standard uncertainties","nCombUncertLevOfConfid":95,"tml_elements":["nCombUncertAssessNum","sCombUncertEvaluator","eCombUncertEvalMethod","nCombUncertLevOfConfid"],"sCombUncertEvaluator":"Data file compiler","nCombUncertAssessNum":1},"nTemperature-K":"298.15","nPressure-kPa":"100","nPressureDigits":1}],"sContributor":"EP","nReactionDataNumber":1,"tml_elements":["nReactionDataNumber","Participant","eExpPurpose","sCompiler","sContributor","dateDateAdded","eReactionType","Property","NumValues"],"Participant":[{"nStoichiometricCoef":"-1","nSampleNm":1,"RegNum":{"nOrgNum":6,"tml_elements":["nOrgNum"]},"tml_elements":["RegNum","nSampleNm","nStoichiometricCoef","ePhase"],"ePhase":"Crystal"},{"ePhase":"Solution 1","tml_elements":["RegNum","nStoichiometricCoef","ePhase"],"RegNum":{"tml_elements":["nOrgNum"],"nOrgNum":1},"nStoichiometricCoef":"1"},{"ePhase":"Ideal gas","tml_elements":["RegNum","nStoichiometricCoef","ePhase"],"nStoichiometricCoef":"3","RegNum":{"tml_elements":["nOrgNum"],"nOrgNum":2}},{"tml_elements":["RegNum","nStoichiometricCoef","ePhase"],"ePhase":"Ideal gas","nStoichiometricCoef":"1","RegNum":{"tml_elements":["nOrgNum"],"nOrgNum":3}},{"RegNum":{"nOrgNum":4,"tml_elements":["nOrgNum"]},"nStoichiometricCoef":"2","ePhase":"Liquid","tml_elements":["RegNum","nStoichiometricCoef","ePhase"]},{"nStoichiometricCoef":"-6","RegNum":{"tml_elements":["nOrgNum"],"nOrgNum":5},"ePhase":"Ideal gas","tml_elements":["RegNum","nStoichiometricCoef","ePhase"]}],"eReactionType":"Combustion with oxygen"}],"tml_elements":["Version","Citation","Compound","PureOrMixtureData","ReactionData"]}