{"tml_elements":["Version","Citation","Compound","PureOrMixtureData"],"PureOrMixtureData":[{"Constraint":[{"nConstraintNumber":1,"nConstrDigits":1,"ConstraintID":{"tml_elements":["ConstraintType"],"ConstraintType":{"tml_elements":["ePressure"],"ePressure":"Pressure, kPa"}},"ConstraintPhaseID":{"eConstraintPhase":"Crystal of intercomponent compound 1","tml_elements":["eConstraintPhase"]},"nConstraintValue":100,"tml_elements":["nConstraintNumber","ConstraintID","ConstraintPhaseID","nConstraintValue","nConstrDigits"]},{"tml_elements":["nConstraintNumber","ConstraintID","ConstraintPhaseID","nConstraintValue","nConstrDigits"],"nConstraintValue":0.667,"ConstraintPhaseID":{"eConstraintPhase":"Crystal of intercomponent compound 1","tml_elements":["eConstraintPhase"]},"ConstraintID":{"RegNum":{"nOrgNum":1,"tml_elements":["nOrgNum"]},"ConstraintType":{"tml_elements":["eComponentComposition"],"eComponentComposition":"Mole fraction"},"tml_elements":["ConstraintType","RegNum"]},"nConstraintNumber":2,"nConstrDigits":3}],"sContributor":"EP","Variable":[{"tml_elements":["nVarNumber","VariableID","VarPhaseID"],"nVarNumber":1,"VarPhaseID":{"tml_elements":["eVarPhase"],"eVarPhase":"Crystal of intercomponent compound 1"},"VariableID":{"VariableType":{"tml_elements":["eTemperature"],"eTemperature":"Temperature, K"},"tml_elements":["VariableType"]}}],"tml_elements":["nPureOrMixtureDataNumber","Component","eExpPurpose","sCompiler","sContributor","dateDateAdded","Property","PhaseID","Constraint","Variable","NumValues"],"PhaseID":[{"tml_elements":["ePhase"],"ePhase":"Crystal of intercomponent compound 1"}],"Component":[{"nSampleNm":1,"RegNum":{"tml_elements":["nOrgNum"],"nOrgNum":1},"tml_elements":["RegNum","nSampleNm"]},{"tml_elements":["RegNum","nSampleNm"],"RegNum":{"nOrgNum":2,"tml_elements":["nOrgNum"]},"nSampleNm":1}],"dateDateAdded":"7/13/2018","nPureOrMixtureDataNumber":1,"sCompiler":"EP","NumValues":[{"PropertyValue":[{"nPropValue":1088.57,"CombinedUncertainty":{"nCombUncertAssessNum":1,"nCombExpandUncertValue":44.22,"tml_elements":["nCombUncertAssessNum","nCombExpandUncertValue"]},"tml_elements":["nPropNumber","nPropValue","nPropDigits","CombinedUncertainty"],"nPropNumber":1,"nPropDigits":6}],"tml_elements":["VariableValue","PropertyValue"],"VariableValue":[{"nVarValue":288.15,"nVarDigits":5,"tml_elements":["nVarNumber","nVarValue","nVarDigits"],"nVarNumber":1}]},{"PropertyValue":[{"CombinedUncertainty":{"nCombUncertAssessNum":1,"nCombExpandUncertValue":44.76,"tml_elements":["nCombUncertAssessNum","nCombExpandUncertValue"]},"nPropValue":1101.94,"nPropDigits":6,"nPropNumber":1,"tml_elements":["nPropNumber","nPropValue","nPropDigits","CombinedUncertainty"]}],"tml_elements":["VariableValue","PropertyValue"],"VariableValue":[{"nVarNumber":1,"nVarDigits":5,"tml_elements":["nVarNumber","nVarValue","nVarDigits"],"nVarValue":293.15}]},{"PropertyValue":[{"nPropValue":1114.04,"CombinedUncertainty":{"tml_elements":["nCombUncertAssessNum","nCombExpandUncertValue"],"nCombExpandUncertValue":45.25,"nCombUncertAssessNum":1},"tml_elements":["nPropNumber","nPropValue","nPropDigits","CombinedUncertainty"],"nPropDigits":6,"nPropNumber":1}],"tml_elements":["VariableValue","PropertyValue"],"VariableValue":[{"nVarNumber":1,"nVarDigits":5,"tml_elements":["nVarNumber","nVarValue","nVarDigits"],"nVarValue":298.15}]},{"tml_elements":["VariableValue","PropertyValue"],"PropertyValue":[{"nPropValue":1124.94,"CombinedUncertainty":{"nCombUncertAssessNum":1,"tml_elements":["nCombUncertAssessNum","nCombExpandUncertValue"],"nCombExpandUncertValue":45.7},"nPropNumber":1,"nPropDigits":6,"tml_elements":["nPropNumber","nPropValue","nPropDigits","CombinedUncertainty"]}],"VariableValue":[{"nVarValue":303.15,"nVarDigits":5,"tml_elements":["nVarNumber","nVarValue","nVarDigits"],"nVarNumber":1}]},{"VariableValue":[{"tml_elements":["nVarNumber","nVarValue","nVarDigits"],"nVarDigits":5,"nVarNumber":1,"nVarValue":308.15}],"tml_elements":["VariableValue","PropertyValue"],"PropertyValue":[{"nPropValue":1134.71,"CombinedUncertainty":{"nCombUncertAssessNum":1,"nCombExpandUncertValue":46.09,"tml_elements":["nCombUncertAssessNum","nCombExpandUncertValue"]},"nPropNumber":1,"nPropDigits":6,"tml_elements":["nPropNumber","nPropValue","nPropDigits","CombinedUncertainty"]}]},{"VariableValue":[{"nVarNumber":1,"nVarDigits":5,"tml_elements":["nVarNumber","nVarValue","nVarDigits"],"nVarValue":313.15}],"PropertyValue":[{"CombinedUncertainty":{"nCombUncertAssessNum":1,"nCombExpandUncertValue":46.45,"tml_elements":["nCombUncertAssessNum","nCombExpandUncertValue"]},"nPropValue":1143.43,"tml_elements":["nPropNumber","nPropValue","nPropDigits","CombinedUncertainty"],"nPropNumber":1,"nPropDigits":6}],"tml_elements":["VariableValue","PropertyValue"]},{"tml_elements":["VariableValue","PropertyValue"],"PropertyValue":[{"tml_elements":["nPropNumber","nPropValue","nPropDigits","CombinedUncertainty"],"nPropDigits":6,"nPropNumber":1,"nPropValue":1151.18,"CombinedUncertainty":{"nCombExpandUncertValue":46.76,"tml_elements":["nCombUncertAssessNum","nCombExpandUncertValue"],"nCombUncertAssessNum":1}}],"VariableValue":[{"nVarValue":318.15,"tml_elements":["nVarNumber","nVarValue","nVarDigits"],"nVarDigits":5,"nVarNumber":1}]},{"VariableValue":[{"nVarValue":323.15,"nVarNumber":1,"tml_elements":["nVarNumber","nVarValue","nVarDigits"],"nVarDigits":5}],"PropertyValue":[{"CombinedUncertainty":{"nCombUncertAssessNum":1,"tml_elements":["nCombUncertAssessNum","nCombExpandUncertValue"],"nCombExpandUncertValue":47.04},"nPropValue":1158.02,"nPropNumber":1,"nPropDigits":6,"tml_elements":["nPropNumber","nPropValue","nPropDigits","CombinedUncertainty"]}],"tml_elements":["VariableValue","PropertyValue"]},{"tml_elements":["VariableValue","PropertyValue"],"PropertyValue":[{"nPropNumber":1,"nPropDigits":6,"tml_elements":["nPropNumber","nPropValue","nPropDigits","CombinedUncertainty"],"nPropValue":1164.04,"CombinedUncertainty":{"nCombUncertAssessNum":1,"tml_elements":["nCombUncertAssessNum","nCombExpandUncertValue"],"nCombExpandUncertValue":47.28}}],"VariableValue":[{"nVarValue":328.15,"nVarDigits":5,"tml_elements":["nVarNumber","nVarValue","nVarDigits"],"nVarNumber":1}]},{"VariableValue":[{"nVarValue":333.15,"nVarDigits":5,"tml_elements":["nVarNumber","nVarValue","nVarDigits"],"nVarNumber":1}],"PropertyValue":[{"nPropValue":1169.3,"CombinedUncertainty":{"nCombUncertAssessNum":1,"tml_elements":["nCombUncertAssessNum","nCombExpandUncertValue"],"nCombExpandUncertValue":47.5},"tml_elements":["nPropNumber","nPropValue","nPropDigits","CombinedUncertainty"],"nPropNumber":1,"nPropDigits":6}],"tml_elements":["VariableValue","PropertyValue"]}],"Property":[{"CombinedUncertainty":{"tml_elements":["nCombUncertAssessNum","sCombUncertEvaluator","eCombUncertEvalMethod","nCombUncertLevOfConfid"],"eCombUncertEvalMethod":"Propagation of evaluated standard uncertainties","nCombUncertLevOfConfid":95,"nCombUncertAssessNum":1,"sCombUncertEvaluator":"Data file compiler"},"ePresentation":"Direct value, X","tml_elements":["nPropNumber","Property-MethodID","PropPhaseID","ePresentation","CombinedUncertainty"],"Property-MethodID":{"tml_elements":["PropertyGroup"],"PropertyGroup":{"tml_elements":["HeatCapacityAndDerivedProp"],"HeatCapacityAndDerivedProp":{"ePropName":"Molar heat capacity at constant pressure, J/K/mol","sMethodName":"DSC","tml_elements":["ePropName","sMethodName"]}}},"PropPhaseID":{"tml_elements":["ePropPhase"],"ePropPhase":"Crystal of intercomponent compound 1"},"nPropNumber":1}],"eExpPurpose":"Principal objective of the work"},{"Component":[{"tml_elements":["RegNum","nSampleNm"],"RegNum":{"nOrgNum":1,"tml_elements":["nOrgNum"]},"nSampleNm":1},{"tml_elements":["RegNum","nSampleNm"],"nSampleNm":1,"RegNum":{"nOrgNum":3,"tml_elements":["nOrgNum"]}}],"tml_elements":["nPureOrMixtureDataNumber","Component","eExpPurpose","sCompiler","sContributor","dateDateAdded","Property","PhaseID","Variable","NumValues"],"PhaseID":[{"tml_elements":["ePhase"],"ePhase":"Liquid"}],"sContributor":"EP","Variable":[{"VariableID":{"tml_elements":["VariableType","RegNum"],"VariableType":{"tml_elements":["eComponentComposition"],"eComponentComposition":"Mole fraction"},"RegNum":{"tml_elements":["nOrgNum"],"nOrgNum":1}},"tml_elements":["nVarNumber","VariableID","VarPhaseID"],"nVarNumber":1,"VarPhaseID":{"eVarPhase":"Liquid","tml_elements":["eVarPhase"]}},{"tml_elements":["nVarNumber","VariableID","VarPhaseID"],"VarPhaseID":{"tml_elements":["eVarPhase"],"eVarPhase":"Liquid"},"nVarNumber":2,"VariableID":{"VariableType":{"tml_elements":["eTemperature"],"eTemperature":"Temperature, K"},"tml_elements":["VariableType"]}},{"tml_elements":["nVarNumber","VariableID","VarPhaseID"],"nVarNumber":3,"VarPhaseID":{"eVarPhase":"Liquid","tml_elements":["eVarPhase"]},"VariableID":{"VariableType":{"ePressure":"Pressure, kPa","tml_elements":["ePressure"]},"tml_elements":["VariableType"]}}],"Property":[{"nPropNumber":1,"PropPhaseID":{"ePropPhase":"Liquid","tml_elements":["ePropPhase"]},"tml_elements":["nPropNumber","Property-MethodID","PropPhaseID","ePresentation","eRefStateType","RefPhaseID","Solvent","CombinedUncertainty"],"ePresentation":"Difference with the reference state, X-X(REF)","CombinedUncertainty":{"sCombUncertEvaluator":"Data file compiler","nCombUncertAssessNum":1,"nCombUncertLevOfConfid":95,"eCombUncertEvalMethod":"Propagation of evaluated standard uncertainties","tml_elements":["nCombUncertAssessNum","sCombUncertEvaluator","eCombUncertEvalMethod","nCombUncertLevOfConfid"]},"Solvent":{"RegNum":[{"tml_elements":["nOrgNum"],"nOrgNum":3}],"tml_elements":["RegNum"]},"Property-MethodID":{"PropertyGroup":{"tml_elements":["ExcessPartialApparentEnergyProp"],"ExcessPartialApparentEnergyProp":{"eMethodName":"Calvet calorimetry","ePropName":"Molar enthalpy of solution, kJ/mol","tml_elements":["ePropName","eMethodName"]}},"tml_elements":["PropertyGroup"]},"RefPhaseID":{"eRefPhase":"Crystal 1","tml_elements":["eRefPhase"]},"eRefStateType":"Pure solute at the same temperature and pressure"}],"eExpPurpose":"Principal objective of the work","NumValues":[{"PropertyValue":[{"nPropDigits":4,"nPropNumber":1,"tml_elements":["nPropNumber","nPropValue","nPropDigits","CombinedUncertainty"],"nPropValue":7.336,"CombinedUncertainty":{"nCombExpandUncertValue":0.068,"tml_elements":["nCombUncertAssessNum","nCombExpandUncertValue"],"nCombUncertAssessNum":1}}],"tml_elements":["VariableValue","PropertyValue"],"VariableValue":[{"nVarValue":0,"tml_elements":["nVarNumber","nVarValue","nVarDigits"],"nVarDigits":1,"nVarNumber":1},{"nVarNumber":2,"tml_elements":["nVarNumber","nVarValue","nVarDigits"],"nVarDigits":5,"nVarValue":298.15},{"nVarValue":100,"nVarNumber":3,"tml_elements":["nVarNumber","nVarValue","nVarDigits"],"nVarDigits":1}]}],"nPureOrMixtureDataNumber":2,"dateDateAdded":"11/13/2018","sCompiler":"EP"},{"sContributor":"EP","Variable":[{"VarPhaseID":{"eVarPhase":"Liquid","tml_elements":["eVarPhase"]},"nVarNumber":1,"tml_elements":["nVarNumber","VariableID","VarPhaseID"],"VariableID":{"RegNum":{"nOrgNum":2,"tml_elements":["nOrgNum"]},"VariableType":{"tml_elements":["eComponentComposition"],"eComponentComposition":"Mole fraction"},"tml_elements":["VariableType","RegNum"]}},{"VarPhaseID":{"eVarPhase":"Liquid","tml_elements":["eVarPhase"]},"nVarNumber":2,"tml_elements":["nVarNumber","VariableID","VarPhaseID"],"VariableID":{"tml_elements":["VariableType"],"VariableType":{"eTemperature":"Temperature, K","tml_elements":["eTemperature"]}}},{"nVarNumber":3,"VarPhaseID":{"tml_elements":["eVarPhase"],"eVarPhase":"Liquid"},"tml_elements":["nVarNumber","VariableID","VarPhaseID"],"VariableID":{"tml_elements":["VariableType"],"VariableType":{"ePressure":"Pressure, kPa","tml_elements":["ePressure"]}}},{"VariableID":{"tml_elements":["VariableType","RegNum"],"VariableType":{"eComponentComposition":"Mole fraction","tml_elements":["eComponentComposition"]},"RegNum":{"nOrgNum":1,"tml_elements":["nOrgNum"]}},"tml_elements":["nVarNumber","VariableID","VarPhaseID"],"VarPhaseID":{"tml_elements":["eVarPhase"],"eVarPhase":"Liquid"},"nVarNumber":4}],"tml_elements":["nPureOrMixtureDataNumber","Component","eExpPurpose","sCompiler","sContributor","dateDateAdded","Property","PhaseID","Variable","NumValues"],"PhaseID":[{"tml_elements":["ePhase"],"ePhase":"Liquid"}],"Component":[{"nSampleNm":1,"RegNum":{"tml_elements":["nOrgNum"],"nOrgNum":2},"tml_elements":["RegNum","nSampleNm"]},{"nSampleNm":1,"RegNum":{"tml_elements":["nOrgNum"],"nOrgNum":1},"tml_elements":["RegNum","nSampleNm"]},{"nSampleNm":1,"RegNum":{"tml_elements":["nOrgNum"],"nOrgNum":3},"tml_elements":["RegNum","nSampleNm"]}],"dateDateAdded":"11/13/2018","nPureOrMixtureDataNumber":3,"sCompiler":"EP","NumValues":[{"VariableValue":[{"nVarNumber":1,"nVarDigits":1,"tml_elements":["nVarNumber","nVarValue","nVarDigits"],"nVarValue":0},{"nVarValue":298.15,"nVarNumber":2,"nVarDigits":5,"tml_elements":["nVarNumber","nVarValue","nVarDigits"]},{"nVarValue":100,"nVarDigits":1,"tml_elements":["nVarNumber","nVarValue","nVarDigits"],"nVarNumber":3},{"tml_elements":["nVarNumber","nVarValue","nVarDigits"],"nVarDigits":1,"nVarNumber":4,"nVarValue":0}],"tml_elements":["VariableValue","PropertyValue"],"PropertyValue":[{"nPropValue":15.99,"CombinedUncertainty":{"nCombExpandUncertValue":0.182,"tml_elements":["nCombUncertAssessNum","nCombExpandUncertValue"],"nCombUncertAssessNum":1},"nPropDigits":4,"nPropNumber":1,"tml_elements":["nPropNumber","nPropValue","nPropDigits","CombinedUncertainty"]}]}],"Property":[{"ePresentation":"Difference with the reference state, X-X(REF)","tml_elements":["nPropNumber","Property-MethodID","PropPhaseID","ePresentation","eRefStateType","RefPhaseID","Solvent","CombinedUncertainty"],"PropPhaseID":{"ePropPhase":"Liquid","tml_elements":["ePropPhase"]},"nPropNumber":1,"eRefStateType":"Pure solute at the same temperature and pressure","RefPhaseID":{"tml_elements":["eRefPhase"],"eRefPhase":"Crystal 1"},"Property-MethodID":{"PropertyGroup":{"ExcessPartialApparentEnergyProp":{"tml_elements":["ePropName","eMethodName"],"ePropName":"Molar enthalpy of solution, kJ/mol","eMethodName":"Calvet calorimetry"},"tml_elements":["ExcessPartialApparentEnergyProp"]},"tml_elements":["PropertyGroup"]},"Solvent":{"RegNum":[{"tml_elements":["nOrgNum"],"nOrgNum":1},{"tml_elements":["nOrgNum"],"nOrgNum":3}],"tml_elements":["RegNum"]},"CombinedUncertainty":{"nCombUncertAssessNum":1,"sCombUncertEvaluator":"Data file compiler","tml_elements":["nCombUncertAssessNum","sCombUncertEvaluator","eCombUncertEvalMethod","nCombUncertLevOfConfid"],"eCombUncertEvalMethod":"Propagation of evaluated standard uncertainties","nCombUncertLevOfConfid":95}}],"eExpPurpose":"Principal objective of the work"}],"THERMOML_MD5_CHECKSUM":"a1fcd34d4d9293807ff720d67fceb2ab","Citation":{"eSourceType":"Original","sTitle":"Standard Enthalpy of Formation, Thermal Behavior, and Specific Heat Capacity of 2HNIW*HMX Co-crystals","sDOI":"10.1021/acs.jced.8b00454","sAbstract":"Co-crystallization is an effective approach to improving the performance of energetic materials, and study on the properties of energetic co-crystal has been attracted more attention. The 2HNIW*HMX co-crystal was successfully synthesized, and characterized by several means. The standard enthalpy of formation of 2HNIW*HMX co-crystal is obtained as 868.5980.128 kJ*mol-1 under the direction of a designed thermochemical cycle with a Calvet micro-calorimeter. The thermal decomposition behavior of 2HNIW*HMX co-crystal was studied under the non-isothermal condition with DSC. A continuous Cp mode of Micro-DSC III was used to determine the specific heat capacity (Cp,m) of the target co-crystal, and the Cp,m is 1114.04 J*mol-1*K-1 at 298.15 K. These results could provide valuable information of 2HNIW*HMX co-crystal for its theory and application.","TRCRefID":{"yrYrPub":"2019","tml_elements":["yrYrPub","sAuthor1","sAuthor2","nAuthorn"],"nAuthorn":"2","sAuthor1":"zha","sAuthor2":"zha"},"sKeyword":["2HNIW*HMX co-crystal","thermochemical cycle","standard enthalpy of formation","thermal behavior","specific heat capacity"],"sAuthor":["Zhang, Shijie","Zhang, Jiaoqiang","Kou, Kaichang","Jia, Qian","Xu, Yunlong","Liu, Ning","Hu, Rongzu"],"tml_elements":["TRCRefID","eType","eSourceType","sAuthor","sPubName","yrPubYr","dateCit","sTitle","sAbstract","sKeyword","sDOI","sIDNum","sVol","sPage"],"sPubName":"J. Chem. Eng. Data","yrPubYr":"2019","dateCit":"2020-09-29","sIDNum":"1","sPage":"42-50","eType":"journal","sVol":"64"},"Compound":[{"Sample":[{"purity":[{"nPurityMassDigits":3,"tml_elements":["nStep","nPurityMass","nPurityMassDigits","eAnalMeth"],"nStep":1,"eAnalMeth":["Stated by supplier"],"nPurityMass":99.3}],"tml_elements":["nSampleNm","eSource","purity"],"eSource":"Commercial source","nSampleNm":1}],"sCommonName":["2,4,6,8,10,12-hexanitro-2,4,6,8,10,12-hexaazaisowurtzitane","2,4,6,8,10,12-hexanitro-2,4,6,8,10,12-hexaazatetracyclo[5.5.0.0(5,9).0(3,11)]dodecane"],"tml_elements":["RegNum","sStandardInChI","sStandardInChIKey","sCommonName","sFormulaMolec","Sample"],"sFormulaMolec":"C6H6N12O12","sStandardInChI":"InChI=1S/C6H6N12O12/c19-13(20)7-1-2-8(14(21)22)5(7)6-9(15(23)24)3(11(1)17(27)28)4(10(6)16(25)26)12(2)18(29)30/h1-6H","RegNum":{"tml_elements":["nOrgNum"],"nOrgNum":1},"sStandardInChIKey":"NDYLCHGXSQOGMS-UHFFFAOYSA-N"},{"sStandardInChIKey":"UZGLIIJVICEWHF-UHFFFAOYSA-N","RegNum":{"tml_elements":["nOrgNum"],"nOrgNum":2},"sStandardInChI":"InChI=1S/C4H8N8O8/c13-9(14)5-1-6(10(15)16)3-8(12(19)20)4-7(2-5)11(17)18/h1-4H2","Sample":[{"eSource":"Commercial source","nSampleNm":1,"tml_elements":["nSampleNm","eSource","purity"],"purity":[{"eAnalMeth":["Stated by supplier"],"nPurityMass":99.2,"tml_elements":["nStep","nPurityMass","nPurityMassDigits","eAnalMeth"],"nPurityMassDigits":3,"nStep":1}]}],"sCommonName":["cyclotetramethylene tetranitramine","HMX","HMX (cyclotetramethylene tetranitramine)","octahydro-1,3,5,7-tetranitro-1,3,5,7-tetrazocine","octogen"],"tml_elements":["RegNum","sStandardInChI","sStandardInChIKey","sCommonName","sFormulaMolec","Sample"],"sFormulaMolec":"C4H8N8O8"},{"sFormulaMolec":"C2H3N","sCommonName":["acetonitrile","cyanomethane","ethanenitrile","ethanonitrile","methanecarbonitrile","methyl cyanide"],"Sample":[{"eSource":"Commercial source","nSampleNm":1,"tml_elements":["nSampleNm","eSource","purity"],"purity":[{"nStep":1,"nPurityMassDigits":3,"tml_elements":["nStep","nPurityMass","nPurityMassDigits","eAnalMeth"],"nPurityMass":99.8,"eAnalMeth":["Stated by supplier"]}]}],"tml_elements":["RegNum","sStandardInChI","sStandardInChIKey","sCommonName","sFormulaMolec","Sample"],"RegNum":{"tml_elements":["nOrgNum"],"nOrgNum":3},"sStandardInChI":"InChI=1S/C2H3N/c1-2-3/h1H3","sStandardInChIKey":"WEVYAHXRMPXWCK-UHFFFAOYSA-N"}],"Version":{"nVersionMajor":2,"nVersionMinor":0,"tml_elements":["nVersionMajor","nVersionMinor"]}}