{"Citation":{"sVol":"64","eType":"journal","sPage":"1898-1908","sIDNum":"5","dateCit":"2020-09-29","sPubName":"J. Chem. Eng. Data","yrPubYr":"2019","sKeyword":["Energy of Combustion","Enthalpy of Formation","Thermogravimetry","Methyl methoxybenzoate","G4 composite method","DensToolKit."],"sAuthor":["Flores, Henoc","Ledo, J. Manuel","Camarillo, E. Adriana","Solano-Altamirano, Juan M.","Hernandez-Perez, Julio M.","Ramos, Fernando","Rabell, Brenda"],"tml_elements":["TRCRefID","eType","eSourceType","sAuthor","sPubName","yrPubYr","dateCit","sTitle","sAbstract","sKeyword","sDOI","sIDNum","sVol","sPage"],"sTitle":"Thermochemical Study of Methyl n-Methoxybenzoates: An Experimental and Computational Approach","sDOI":"10.1021/acs.jced.8b00978","sAbstract":"In this work we determine, both experimentally and computationally, structural and thermochemical properties of the methyl 2- and 4-methoxybenzoates. Combustion and vaporization enthalpies of these compounds were obtained experimentally through combustion calorimetry and thermogravimetry. From these properties, their standard molar enthalpies of formation in the gas-phase, at T = 298.15 K, were also determined. In addition, we computed gas-phase enthalpies of formation of methyl 2-, 3-, and 4-methoxybenzoates using the Gaussian G4 composite method, atomization reactions, and a weighted Boltzmann average. This average was performed over the stable conformers of each compound and the respective Gibbs energies were used to compute the weights for the Boltzmann average. The analyses of the electronic density of the molecules and of non-covalent interactions were performed as well. We found a good agreement between our experimental and computational enthalpies of formation of methyl 2- and 4-methoxybenzoates. Finally, we discuss the enthalpic effects, as a function of the relative position of the methoxy and methyl groups, upon the benzoate base-structure.","TRCRefID":{"yrYrPub":"2019","nAuthorn":"0","tml_elements":["yrYrPub","sAuthor1","sAuthor2","nAuthorn"],"sAuthor2":"led","sAuthor1":"flo"},"eSourceType":"Original"},"Version":{"nVersionMinor":0,"nVersionMajor":2,"tml_elements":["nVersionMajor","nVersionMinor"]},"tml_elements":["Version","Citation","Compound","PureOrMixtureData","ReactionData"],"PureOrMixtureData":[{"Property":[{"CombinedUncertainty":{"tml_elements":["nCombUncertAssessNum","sCombUncertEvaluator","eCombUncertEvalMethod","nCombUncertLevOfConfid"],"eCombUncertEvalMethod":"Propagation of evaluated standard uncertainties","nCombUncertLevOfConfid":95,"nCombUncertAssessNum":1,"sCombUncertEvaluator":"Data file compiler"},"Property-MethodID":{"PropertyGroup":{"PhaseTransition":{"sMethodName":"DSC","ePropName":"Triple point temperature, K","tml_elements":["ePropName","sMethodName"]},"tml_elements":["PhaseTransition"]},"tml_elements":["PropertyGroup"]},"tml_elements":["nPropNumber","Property-MethodID","PropPhaseID","ePresentation","CombinedUncertainty"],"ePresentation":"Direct value, X","nPropNumber":1,"PropPhaseID":{"tml_elements":["ePropPhase"],"ePropPhase":"Crystal"}}],"eExpPurpose":"Principal objective of the work","dateDateAdded":"1/30/2019","nPureOrMixtureDataNumber":1,"sCompiler":"EP","NumValues":[{"VariableValue":[],"PropertyValue":[{"CombinedUncertainty":{"nCombUncertAssessNum":1,"nCombExpandUncertValue":0.81,"tml_elements":["nCombUncertAssessNum","nCombExpandUncertValue"]},"nPropValue":321.22,"nPropDigits":5,"nPropNumber":1,"tml_elements":["nPropNumber","nPropValue","nPropDigits","CombinedUncertainty"]}],"tml_elements":["PropertyValue"]}],"tml_elements":["nPureOrMixtureDataNumber","Component","eExpPurpose","sCompiler","sContributor","dateDateAdded","Property","PhaseID","NumValues"],"PhaseID":[{"tml_elements":["ePhase"],"ePhase":"Crystal"},{"tml_elements":["ePhase"],"ePhase":"Liquid"},{"tml_elements":["ePhase"],"ePhase":"Air at 1 atmosphere"}],"Component":[{"RegNum":{"nOrgNum":4,"tml_elements":["nOrgNum"]},"nSampleNm":1,"tml_elements":["RegNum","nSampleNm"]}],"sContributor":"EP"},{"sContributor":"EP","Component":[{"nSampleNm":1,"RegNum":{"nOrgNum":4,"tml_elements":["nOrgNum"]},"tml_elements":["RegNum","nSampleNm"]}],"tml_elements":["nPureOrMixtureDataNumber","Component","eExpPurpose","sCompiler","sContributor","dateDateAdded","Property","PhaseID","NumValues"],"PhaseID":[{"tml_elements":["ePhase"],"ePhase":"Crystal"},{"tml_elements":["ePhase"],"ePhase":"Liquid"},{"tml_elements":["ePhase"],"ePhase":"Air at 1 atmosphere"}],"NumValues":[{"tml_elements":["PropertyValue"],"PropertyValue":[{"CombinedUncertainty":{"nCombUncertAssessNum":1,"tml_elements":["nCombUncertAssessNum","nCombExpandUncertValue"],"nCombExpandUncertValue":0.5},"nPropValue":19.9,"nPropDigits":3,"nPropNumber":1,"tml_elements":["nPropNumber","nPropValue","nPropDigits","CombinedUncertainty"]}],"VariableValue":[]}],"nPureOrMixtureDataNumber":2,"dateDateAdded":"1/30/2019","sCompiler":"EP","eExpPurpose":"Principal objective of the work","Property":[{"CombinedUncertainty":{"nCombUncertAssessNum":1,"sCombUncertEvaluator":"Data file compiler","tml_elements":["nCombUncertAssessNum","sCombUncertEvaluator","eCombUncertEvalMethod","nCombUncertLevOfConfid"],"nCombUncertLevOfConfid":95,"eCombUncertEvalMethod":"Propagation of evaluated standard uncertainties"},"Property-MethodID":{"PropertyGroup":{"tml_elements":["PhaseTransition"],"PhaseTransition":{"tml_elements":["ePropName","sMethodName"],"ePropName":"Molar enthalpy of transition or fusion, kJ/mol","sMethodName":"DSC"}},"tml_elements":["PropertyGroup"]},"PropPhaseID":{"ePropPhase":"Crystal","tml_elements":["ePropPhase"]},"nPropNumber":1,"ePresentation":"Direct value, X","tml_elements":["nPropNumber","Property-MethodID","PropPhaseID","ePresentation","CombinedUncertainty"]}]},{"Component":[{"tml_elements":["RegNum","nSampleNm"],"nSampleNm":1,"RegNum":{"nOrgNum":4,"tml_elements":["nOrgNum"]}}],"tml_elements":["nPureOrMixtureDataNumber","Component","eExpPurpose","sCompiler","sContributor","dateDateAdded","Property","PhaseID","Variable","NumValues"],"PhaseID":[{"ePhase":"Liquid","tml_elements":["ePhase"]},{"ePhase":"Gas","tml_elements":["ePhase"]}],"sContributor":"EP","Variable":[{"VariableID":{"tml_elements":["VariableType"],"VariableType":{"eTemperature":"Temperature, K","tml_elements":["eTemperature"]}},"tml_elements":["nVarNumber","VariableID","VarPhaseID"],"VarPhaseID":{"tml_elements":["eVarPhase"],"eVarPhase":"Liquid"},"nVarNumber":1}],"eExpPurpose":"Principal objective of the work","Property":[{"tml_elements":["nPropNumber","Property-MethodID","PropPhaseID","ePresentation","CombinedUncertainty"],"ePresentation":"Direct value, X","nPropNumber":1,"Property-MethodID":{"PropertyGroup":{"PhaseTransition":{"tml_elements":["ePropName","eMethodName"],"eMethodName":"Derived by Second law","ePropName":"Molar enthalpy of vaporization or sublimation, kJ/mol"},"tml_elements":["PhaseTransition"]},"tml_elements":["PropertyGroup"]},"PropPhaseID":{"ePropPhase":"Liquid","tml_elements":["ePropPhase"]},"CombinedUncertainty":{"nCombUncertAssessNum":1,"sCombUncertEvaluator":"Data file compiler","tml_elements":["nCombUncertAssessNum","sCombUncertEvaluator","eCombUncertEvalMethod","nCombUncertLevOfConfid"],"nCombUncertLevOfConfid":95,"eCombUncertEvalMethod":"Propagation of evaluated standard uncertainties"}}],"NumValues":[{"PropertyValue":[{"CombinedUncertainty":{"tml_elements":["nCombUncertAssessNum","nCombExpandUncertValue"],"nCombExpandUncertValue":1.4,"nCombUncertAssessNum":1},"nPropValue":66.4,"tml_elements":["nPropNumber","nPropValue","nPropDigits","CombinedUncertainty"],"nPropNumber":1,"nPropDigits":3}],"tml_elements":["VariableValue","PropertyValue"],"VariableValue":[{"nVarNumber":1,"nVarDigits":4,"tml_elements":["nVarNumber","nVarValue","nVarDigits"],"nVarValue":370}]}],"nPureOrMixtureDataNumber":3,"dateDateAdded":"1/30/2019","sCompiler":"EP"},{"sContributor":"EP","Component":[{"nSampleNm":1,"RegNum":{"tml_elements":["nOrgNum"],"nOrgNum":5},"tml_elements":["RegNum","nSampleNm"]}],"PhaseID":[{"tml_elements":["ePhase"],"ePhase":"Crystal"},{"tml_elements":["ePhase"],"ePhase":"Liquid"},{"ePhase":"Air at 1 atmosphere","tml_elements":["ePhase"]}],"tml_elements":["nPureOrMixtureDataNumber","Component","eExpPurpose","sCompiler","sContributor","dateDateAdded","Property","PhaseID","NumValues"],"NumValues":[{"PropertyValue":[{"nPropNumber":1,"nPropDigits":5,"tml_elements":["nPropNumber","nPropValue","nPropDigits","CombinedUncertainty"],"nPropValue":276.42,"CombinedUncertainty":{"tml_elements":["nCombUncertAssessNum","nCombExpandUncertValue"],"nCombExpandUncertValue":1,"nCombUncertAssessNum":1}}],"tml_elements":["PropertyValue"],"VariableValue":[]}],"sCompiler":"EP","dateDateAdded":"1/30/2019","nPureOrMixtureDataNumber":4,"eExpPurpose":"Principal objective of the work","Property":[{"CombinedUncertainty":{"nCombUncertAssessNum":1,"sCombUncertEvaluator":"Data file compiler","tml_elements":["nCombUncertAssessNum","sCombUncertEvaluator","eCombUncertEvalMethod","nCombUncertLevOfConfid"],"nCombUncertLevOfConfid":95,"eCombUncertEvalMethod":"Propagation of evaluated standard uncertainties"},"Property-MethodID":{"PropertyGroup":{"PhaseTransition":{"tml_elements":["ePropName","sMethodName"],"ePropName":"Triple point temperature, K","sMethodName":"DSC"},"tml_elements":["PhaseTransition"]},"tml_elements":["PropertyGroup"]},"ePresentation":"Direct value, X","tml_elements":["nPropNumber","Property-MethodID","PropPhaseID","ePresentation","CombinedUncertainty"],"PropPhaseID":{"ePropPhase":"Crystal","tml_elements":["ePropPhase"]},"nPropNumber":1}]},{"sContributor":"EP","Component":[{"RegNum":{"nOrgNum":5,"tml_elements":["nOrgNum"]},"nSampleNm":1,"tml_elements":["RegNum","nSampleNm"]}],"tml_elements":["nPureOrMixtureDataNumber","Component","eExpPurpose","sCompiler","sContributor","dateDateAdded","Property","PhaseID","NumValues"],"PhaseID":[{"ePhase":"Crystal","tml_elements":["ePhase"]},{"tml_elements":["ePhase"],"ePhase":"Liquid"},{"ePhase":"Air at 1 atmosphere","tml_elements":["ePhase"]}],"NumValues":[{"PropertyValue":[{"nPropValue":16.6,"CombinedUncertainty":{"nCombUncertAssessNum":1,"nCombExpandUncertValue":0.5,"tml_elements":["nCombUncertAssessNum","nCombExpandUncertValue"]},"tml_elements":["nPropNumber","nPropValue","nPropDigits","CombinedUncertainty"],"nPropNumber":1,"nPropDigits":3}],"tml_elements":["PropertyValue"],"VariableValue":[]}],"nPureOrMixtureDataNumber":5,"dateDateAdded":"1/30/2019","sCompiler":"EP","eExpPurpose":"Principal objective of the work","Property":[{"CombinedUncertainty":{"tml_elements":["nCombUncertAssessNum","sCombUncertEvaluator","eCombUncertEvalMethod","nCombUncertLevOfConfid"],"eCombUncertEvalMethod":"Propagation of evaluated standard uncertainties","nCombUncertLevOfConfid":95,"nCombUncertAssessNum":1,"sCombUncertEvaluator":"Data file compiler"},"Property-MethodID":{"tml_elements":["PropertyGroup"],"PropertyGroup":{"PhaseTransition":{"tml_elements":["ePropName","sMethodName"],"sMethodName":"DSC","ePropName":"Molar enthalpy of transition or fusion, kJ/mol"},"tml_elements":["PhaseTransition"]}},"nPropNumber":1,"PropPhaseID":{"tml_elements":["ePropPhase"],"ePropPhase":"Crystal"},"tml_elements":["nPropNumber","Property-MethodID","PropPhaseID","ePresentation","CombinedUncertainty"],"ePresentation":"Direct value, X"}]},{"sCompiler":"EP","dateDateAdded":"1/30/2019","nPureOrMixtureDataNumber":6,"NumValues":[{"tml_elements":["VariableValue","PropertyValue"],"PropertyValue":[{"tml_elements":["nPropNumber","nPropValue","nPropDigits","CombinedUncertainty"],"nPropNumber":1,"nPropDigits":3,"nPropValue":61.8,"CombinedUncertainty":{"nCombUncertAssessNum":1,"tml_elements":["nCombUncertAssessNum","nCombExpandUncertValue"],"nCombExpandUncertValue":2.3}}],"VariableValue":[{"tml_elements":["nVarNumber","nVarValue","nVarDigits"],"nVarDigits":4,"nVarNumber":1,"nVarValue":350}]}],"eExpPurpose":"Principal objective of the work","Property":[{"CombinedUncertainty":{"tml_elements":["nCombUncertAssessNum","sCombUncertEvaluator","eCombUncertEvalMethod","nCombUncertLevOfConfid"],"eCombUncertEvalMethod":"Propagation of evaluated standard uncertainties","nCombUncertLevOfConfid":95,"nCombUncertAssessNum":1,"sCombUncertEvaluator":"Data file compiler"},"Property-MethodID":{"tml_elements":["PropertyGroup"],"PropertyGroup":{"tml_elements":["PhaseTransition"],"PhaseTransition":{"tml_elements":["ePropName","eMethodName"],"eMethodName":"Derived by Second law","ePropName":"Molar enthalpy of vaporization or sublimation, kJ/mol"}}},"nPropNumber":1,"PropPhaseID":{"ePropPhase":"Liquid","tml_elements":["ePropPhase"]},"tml_elements":["nPropNumber","Property-MethodID","PropPhaseID","ePresentation","CombinedUncertainty"],"ePresentation":"Direct value, X"}],"Variable":[{"nVarNumber":1,"VarPhaseID":{"tml_elements":["eVarPhase"],"eVarPhase":"Liquid"},"tml_elements":["nVarNumber","VariableID","VarPhaseID"],"VariableID":{"VariableType":{"eTemperature":"Temperature, K","tml_elements":["eTemperature"]},"tml_elements":["VariableType"]}}],"sContributor":"EP","PhaseID":[{"ePhase":"Liquid","tml_elements":["ePhase"]},{"ePhase":"Gas","tml_elements":["ePhase"]}],"tml_elements":["nPureOrMixtureDataNumber","Component","eExpPurpose","sCompiler","sContributor","dateDateAdded","Property","PhaseID","Variable","NumValues"],"Component":[{"tml_elements":["RegNum","nSampleNm"],"RegNum":{"tml_elements":["nOrgNum"],"nOrgNum":5},"nSampleNm":1}]}],"ReactionData":[{"Property":[{"tml_elements":["nPropNumber","Property-MethodID","nTemperature-K","nTemperatureDigits","nPressure-kPa","nPressureDigits","CombinedUncertainty"],"nPropNumber":1,"nPressure-kPa":"100","nPressureDigits":1,"nTemperature-K":"298.15","CombinedUncertainty":{"sCombUncertEvaluator":"Data file compiler","nCombUncertAssessNum":1,"nCombUncertLevOfConfid":95,"eCombUncertEvalMethod":"Propagation of evaluated standard uncertainties","tml_elements":["nCombUncertAssessNum","sCombUncertEvaluator","eCombUncertEvalMethod","nCombUncertLevOfConfid"]},"nTemperatureDigits":5,"Property-MethodID":{"PropertyGroup":{"tml_elements":["ReactionStateChangeProp"],"ReactionStateChangeProp":{"ePropName":"Specific internal energy of reaction at constant volume, J/g","eMethodName":"Static bomb calorimetry","tml_elements":["ePropName","eMethodName"]}},"tml_elements":["PropertyGroup"]}}],"eExpPurpose":"Principal objective of the work","NumValues":[{"VariableValue":[],"tml_elements":["PropertyValue"],"PropertyValue":[{"nPropNumber":1,"nPropDigits":6,"tml_elements":["nPropNumber","nPropValue","nPropDigits","CombinedUncertainty"],"nPropValue":-26990,"CombinedUncertainty":{"tml_elements":["nCombUncertAssessNum","nCombExpandUncertValue"],"nCombExpandUncertValue":8.2,"nCombUncertAssessNum":1}}]}],"dateDateAdded":"1/30/2019","sCompiler":"EP","Participant":[{"ePhase":"Liquid","tml_elements":["RegNum","nSampleNm","nStoichiometricCoef","ePhase"],"nSampleNm":1,"nStoichiometricCoef":"-1","RegNum":{"nOrgNum":5,"tml_elements":["nOrgNum"]}},{"nStoichiometricCoef":"9","RegNum":{"tml_elements":["nOrgNum"],"nOrgNum":1},"ePhase":"Ideal gas","tml_elements":["RegNum","nStoichiometricCoef","ePhase"]},{"nStoichiometricCoef":"5","RegNum":{"tml_elements":["nOrgNum"],"nOrgNum":2},"tml_elements":["RegNum","nStoichiometricCoef","ePhase"],"ePhase":"Liquid"},{"nStoichiometricCoef":"-10","RegNum":{"nOrgNum":3,"tml_elements":["nOrgNum"]},"ePhase":"Ideal gas","tml_elements":["RegNum","nStoichiometricCoef","ePhase"]}],"tml_elements":["nReactionDataNumber","Participant","eExpPurpose","sCompiler","sContributor","dateDateAdded","eReactionType","Property","NumValues"],"eReactionType":"Combustion with oxygen","sContributor":"EP","nReactionDataNumber":1},{"Property":[{"tml_elements":["nPropNumber","Property-MethodID","nTemperature-K","nTemperatureDigits","nPressure-kPa","nPressureDigits","CombinedUncertainty"],"nPropNumber":1,"nTemperatureDigits":5,"Property-MethodID":{"tml_elements":["PropertyGroup"],"PropertyGroup":{"tml_elements":["ReactionStateChangeProp"],"ReactionStateChangeProp":{"ePropName":"Specific internal energy of reaction at constant volume, J/g","eMethodName":"Static bomb calorimetry","tml_elements":["ePropName","eMethodName"]}}},"nPressureDigits":1,"nPressure-kPa":"100","nTemperature-K":"298.15","CombinedUncertainty":{"sCombUncertEvaluator":"Data file compiler","nCombUncertAssessNum":1,"nCombUncertLevOfConfid":95,"eCombUncertEvalMethod":"Propagation of evaluated standard uncertainties","tml_elements":["nCombUncertAssessNum","sCombUncertEvaluator","eCombUncertEvalMethod","nCombUncertLevOfConfid"]}}],"eExpPurpose":"Principal objective of the work","NumValues":[{"VariableValue":[],"PropertyValue":[{"tml_elements":["nPropNumber","nPropValue","nPropDigits","CombinedUncertainty"],"nPropDigits":6,"nPropNumber":1,"CombinedUncertainty":{"nCombUncertAssessNum":1,"nCombExpandUncertValue":4.4,"tml_elements":["nCombUncertAssessNum","nCombExpandUncertValue"]},"nPropValue":-26722.5}],"tml_elements":["PropertyValue"]}],"sCompiler":"EP","dateDateAdded":"1/30/2019","eReactionType":"Combustion with oxygen","tml_elements":["nReactionDataNumber","Participant","eExpPurpose","sCompiler","sContributor","dateDateAdded","eReactionType","Property","NumValues"],"Participant":[{"nSampleNm":1,"nStoichiometricCoef":"-1","RegNum":{"tml_elements":["nOrgNum"],"nOrgNum":4},"ePhase":"Crystal","tml_elements":["RegNum","nSampleNm","nStoichiometricCoef","ePhase"]},{"RegNum":{"nOrgNum":1,"tml_elements":["nOrgNum"]},"nStoichiometricCoef":"9","tml_elements":["RegNum","nStoichiometricCoef","ePhase"],"ePhase":"Ideal gas"},{"ePhase":"Liquid","tml_elements":["RegNum","nStoichiometricCoef","ePhase"],"RegNum":{"tml_elements":["nOrgNum"],"nOrgNum":2},"nStoichiometricCoef":"5"},{"nStoichiometricCoef":"-10","RegNum":{"nOrgNum":3,"tml_elements":["nOrgNum"]},"ePhase":"Ideal gas","tml_elements":["RegNum","nStoichiometricCoef","ePhase"]}],"sContributor":"EP","nReactionDataNumber":2}],"THERMOML_MD5_CHECKSUM":"96c3d225838642ff3e41131596cb8776","Compound":[{"sStandardInChI":"InChI=1S/CO2/c2-1-3","RegNum":{"nOrgNum":1,"tml_elements":["nOrgNum"]},"sStandardInChIKey":"CURLTUGMZLYLDI-UHFFFAOYSA-N","sFormulaMolec":"CO2","sCommonName":["carbon dioxide"],"tml_elements":["RegNum","sStandardInChI","sStandardInChIKey","sCommonName","sFormulaMolec"]},{"RegNum":{"tml_elements":["nOrgNum"],"nOrgNum":2},"sStandardInChI":"InChI=1S/H2O/h1H2","sStandardInChIKey":"XLYOFNOQVPJJNP-UHFFFAOYSA-N","sFormulaMolec":"H2O","sCommonName":["water"],"tml_elements":["RegNum","sStandardInChI","sStandardInChIKey","sCommonName","sFormulaMolec"]},{"sCommonName":["oxygen"],"tml_elements":["RegNum","sStandardInChI","sStandardInChIKey","sCommonName","sFormulaMolec"],"sFormulaMolec":"O2","sStandardInChIKey":"MYMOFIZGZYHOMD-UHFFFAOYSA-N","sStandardInChI":"InChI=1S/O2/c1-2","RegNum":{"nOrgNum":3,"tml_elements":["nOrgNum"]}},{"sFormulaMolec":"C9H10O3","Sample":[{"eSource":"Commercial source","nSampleNm":1,"purity":[{"eAnalMeth":["Stated by supplier"],"tml_elements":["nStep","nPurityMol","nPurityMolDigits","eAnalMeth"],"nPurityMol":99,"nStep":1,"nPurityMolDigits":2},{"tml_elements":["nStep","ePurifMethod"],"nStep":2,"ePurifMethod":["Sublimation"]},{"eAnalMeth":["DSC"],"nPurityMolDigits":4,"nStep":3,"tml_elements":["nStep","nPurityMol","nPurityMolDigits","eAnalMeth"],"nPurityMol":99.99}],"tml_elements":["nSampleNm","eSource","purity"]}],"tml_elements":["RegNum","sStandardInChI","sStandardInChIKey","sCommonName","sFormulaMolec","Sample"],"sCommonName":["methyl 4-methoxybenzoate","4-methoxybenzoic acid, methyl ester","methyl anisate","p-anisic acid, methyl ester"],"sStandardInChIKey":"DDIZAANNODHTRB-UHFFFAOYSA-N","sStandardInChI":"InChI=1S/C9H10O3/c1-11-8-5-3-7(4-6-8)9(10)12-2/h3-6H,1-2H3","RegNum":{"tml_elements":["nOrgNum"],"nOrgNum":4}},{"sStandardInChI":"InChI=1S/C9H10O3/c1-11-8-6-4-3-5-7(8)9(10)12-2/h3-6H,1-2H3","RegNum":{"tml_elements":["nOrgNum"],"nOrgNum":5},"sStandardInChIKey":"PFYHAAAQPNMZHO-UHFFFAOYSA-N","sCommonName":["methyl 2-methoxybenzoate"],"tml_elements":["RegNum","sStandardInChI","sStandardInChIKey","sCommonName","sFormulaMolec","Sample"],"Sample":[{"purity":[{"eAnalMeth":["Stated by supplier"],"nPurityMol":99,"tml_elements":["nStep","nPurityMol","nPurityMolDigits","eAnalMeth"],"nPurityMolDigits":2,"nStep":1},{"nPurityMolDigits":4,"nStep":2,"nPurityMol":99.77,"tml_elements":["nStep","nPurityMol","nPurityMolDigits","eAnalMeth"],"eAnalMeth":["DSC"]}],"tml_elements":["nSampleNm","eSource","purity"],"nSampleNm":1,"eSource":"Commercial source"}],"sFormulaMolec":"C9H10O3"}]}