{"THERMOML_MD5_CHECKSUM":"56db3b7b94e73c4781d6ab0e3f5452dc","Citation":{"sVol":"63","eType":"journal","sPage":"127-137","sPubName":"J. Chem. Eng. Data","yrPubYr":"2018","sIDNum":"1","dateCit":"2020-09-29","tml_elements":["TRCRefID","eType","eSourceType","sAuthor","sPubName","yrPubYr","dateCit","sTitle","sAbstract","sKeyword","sDOI","sIDNum","sVol","sPage"],"sKeyword":["Refractive index","Density","Excess properties","Ternary solutions","Poly (Ethylene","Glycol)","di-potassium tartrate"],"sAuthor":["Barani, Alireza","Pirdashti, Mohsen","Rostami, Abbas Ali"],"sAbstract":"The refractive index  and density (  values of the poly (ethylene glycol) (PEG) 1500 + dipotassium tartrate + water ternary system and physical properties of PEG 1500 + water and dipotassium tartrate + water binary solutions have been measured at 298.15 K and atmospheric pressure. Moreover, the refractive index deviation ( ), viscosity deviation ( ), the apparent specific volume ( ), excess molar volume ( ) and excess Gibbs energy of activation for viscous flow ( ) were calculated from the experimental measurements to analyze the behavior of the binary solutions and the refractive index deviation ( ) and excess molar volume ( ) of the ternary solution. These results were fitted to Redlich Kister polynomial and Cibulka Equations to estimate the interaction parameters. Adjustments were made to the refractive index and density to obtain a third-order polynomial expansion model, and a secondorder equation, respectively. The intermolecular interactions between the mixing components were demonstrated by the obtained data from the calculated functions.","TRCRefID":{"tml_elements":["yrYrPub","sAuthor1","sAuthor2","nAuthorn"],"nAuthorn":"0","sAuthor1":"bar","sAuthor2":"pir","yrYrPub":"2018"},"sDOI":"10.1021/acs.jced.7b00722","sTitle":"Density, Viscosity, Refractive Index, and Excess Properties of Binary and Ternary Solutions of Poly(ethylene glycol), Water, and Dipotassium Tartrate at 298.15 K and Atmospheric Pressure","eSourceType":"Original"},"Compound":[{"sStandardInChIKey":"AVTYONGGKAJVTE-OLXYHTOASA-L","sStandardInChI":"InChI=1S/C4H6O6.2K/c5-1(3(7)8)2(6)4(9)10;;/h1-2,5-6H,(H,7,8)(H,9,10);;/q;2*+1/p-2/t1-,2-;;/m1../s1","RegNum":{"nOrgNum":1,"tml_elements":["nOrgNum"]},"sFormulaMolec":"C4H4K2O6","tml_elements":["RegNum","sStandardInChI","sStandardInChIKey","sCommonName","sFormulaMolec","Sample"],"sCommonName":["dipotassium L-tartrate","potassium (2R,3R)-2,3-dihydroxysuccinate","potassium (2R,3R)-tartrate"],"Sample":[{"purity":[{"nPurityMass":99.5,"eAnalMeth":["Stated by supplier"],"nPurityMassDigits":3,"tml_elements":["nStep","nPurityMass","nPurityMassDigits","eAnalMeth"],"nStep":1}],"tml_elements":["nSampleNm","eSource","purity"],"nSampleNm":1,"eSource":"Commercial source"}]},{"sFormulaMolec":"H2O","sCommonName":["water"],"tml_elements":["RegNum","sStandardInChI","sStandardInChIKey","sCommonName","sFormulaMolec","Sample"],"Sample":[{"nSampleNm":1,"eSource":"Commercial source","purity":[{"tml_elements":["nStep","nPurityMass","nPurityMassDigits","eAnalMeth"],"nPurityMassDigits":3,"nStep":1,"eAnalMeth":["Estimated by the compiler"],"nPurityMass":99.9}],"tml_elements":["nSampleNm","eSource","purity"]}],"sStandardInChIKey":"XLYOFNOQVPJJNP-UHFFFAOYSA-N","sStandardInChI":"InChI=1S/H2O/h1H2","RegNum":{"tml_elements":["nOrgNum"],"nOrgNum":2}}],"tml_elements":["Version","Citation","Compound","PureOrMixtureData"],"PureOrMixtureData":[{"nPureOrMixtureDataNumber":1,"dateDateAdded":"11/7/2017","sCompiler":"EP","NumValues":[{"VariableValue":[{"nVarValue":298.15,"nVarNumber":1,"tml_elements":["nVarNumber","nVarValue","nVarDigits"],"nVarDigits":5},{"nVarNumber":2,"tml_elements":["nVarNumber","nVarValue","nVarDigits"],"nVarDigits":1,"nVarValue":100}],"PropertyValue":[{"nPropValue":1.3327,"CombinedUncertainty":{"nCombUncertAssessNum":1,"nCombExpandUncertValue":0.0004,"tml_elements":["nCombUncertAssessNum","nCombExpandUncertValue"]},"nPropDigits":5,"nPropNumber":1,"tml_elements":["nPropNumber","nPropValue","nPropDigits","CombinedUncertainty"]}],"tml_elements":["VariableValue","PropertyValue"]}],"eExpPurpose":"Principal objective of the work","Property":[{"tml_elements":["nPropNumber","Property-MethodID","PropPhaseID","ePresentation","CombinedUncertainty"],"ePresentation":"Direct value, X","nPropNumber":1,"PropPhaseID":{"tml_elements":["ePropPhase"],"ePropPhase":"Liquid"},"Property-MethodID":{"PropertyGroup":{"RefractionSurfaceTensionSoundSpeed":{"eMethodName":"Standard Abbe refractometry","ePropName":"Refractive index (Na D-line)","tml_elements":["ePropName","eMethodName"]},"tml_elements":["RefractionSurfaceTensionSoundSpeed"]},"tml_elements":["PropertyGroup"]},"CombinedUncertainty":{"tml_elements":["nCombUncertAssessNum","sCombUncertEvaluator","eCombUncertEvalMethod","nCombUncertLevOfConfid"],"nCombUncertLevOfConfid":95,"eCombUncertEvalMethod":"Propagation of evaluated standard uncertainties","nCombUncertAssessNum":1,"sCombUncertEvaluator":"Data file compiler"}}],"sContributor":"EP","Variable":[{"nVarNumber":1,"VarPhaseID":{"eVarPhase":"Liquid","tml_elements":["eVarPhase"]},"tml_elements":["nVarNumber","VariableID","VarPhaseID"],"VariableID":{"VariableType":{"tml_elements":["eTemperature"],"eTemperature":"Temperature, K"},"tml_elements":["VariableType"]}},{"tml_elements":["nVarNumber","VariableID","VarPhaseID"],"VarPhaseID":{"tml_elements":["eVarPhase"],"eVarPhase":"Liquid"},"nVarNumber":2,"VariableID":{"VariableType":{"ePressure":"Pressure, kPa","tml_elements":["ePressure"]},"tml_elements":["VariableType"]}}],"tml_elements":["nPureOrMixtureDataNumber","Component","eExpPurpose","sCompiler","sContributor","dateDateAdded","Property","PhaseID","Variable","NumValues"],"PhaseID":[{"tml_elements":["ePhase"],"ePhase":"Liquid"}],"Component":[{"tml_elements":["RegNum","nSampleNm"],"RegNum":{"nOrgNum":2,"tml_elements":["nOrgNum"]},"nSampleNm":1}]},{"sContributor":"EP","tml_elements":["nPureOrMixtureDataNumber","Component","eExpPurpose","sCompiler","sContributor","dateDateAdded","Property","PhaseID","Variable","NumValues"],"PhaseID":[{"tml_elements":["ePhase"],"ePhase":"Liquid"}],"Variable":[{"tml_elements":["nVarNumber","VariableID","VarPhaseID"],"nVarNumber":1,"VarPhaseID":{"eVarPhase":"Liquid","tml_elements":["eVarPhase"]},"VariableID":{"tml_elements":["VariableType"],"VariableType":{"eTemperature":"Temperature, K","tml_elements":["eTemperature"]}}},{"VarPhaseID":{"eVarPhase":"Liquid","tml_elements":["eVarPhase"]},"nVarNumber":2,"tml_elements":["nVarNumber","VariableID","VarPhaseID"],"VariableID":{"VariableType":{"ePressure":"Pressure, kPa","tml_elements":["ePressure"]},"tml_elements":["VariableType"]}}],"Component":[{"RegNum":{"nOrgNum":2,"tml_elements":["nOrgNum"]},"nSampleNm":1,"tml_elements":["RegNum","nSampleNm"]}],"dateDateAdded":"11/7/2017","nPureOrMixtureDataNumber":2,"sCompiler":"EP","NumValues":[{"tml_elements":["VariableValue","PropertyValue"],"PropertyValue":[{"CombinedUncertainty":{"nCombUncertAssessNum":1,"tml_elements":["nCombUncertAssessNum","nCombExpandUncertValue"],"nCombExpandUncertValue":0.4},"nPropValue":997,"nPropNumber":1,"nPropDigits":4,"tml_elements":["nPropNumber","nPropValue","nPropDigits","CombinedUncertainty"]}],"VariableValue":[{"nVarNumber":1,"nVarDigits":5,"tml_elements":["nVarNumber","nVarValue","nVarDigits"],"nVarValue":298.15},{"nVarValue":100,"nVarNumber":2,"tml_elements":["nVarNumber","nVarValue","nVarDigits"],"nVarDigits":1}]}],"Property":[{"tml_elements":["nPropNumber","Property-MethodID","PropPhaseID","ePresentation","CombinedUncertainty"],"ePresentation":"Direct value, X","nPropNumber":1,"PropPhaseID":{"ePropPhase":"Liquid","tml_elements":["ePropPhase"]},"Property-MethodID":{"tml_elements":["PropertyGroup"],"PropertyGroup":{"tml_elements":["VolumetricProp"],"VolumetricProp":{"tml_elements":["ePropName","eMethodName"],"ePropName":"Mass density, kg/m3","eMethodName":"Vibrating tube method"}}},"CombinedUncertainty":{"tml_elements":["nCombUncertAssessNum","sCombUncertEvaluator","eCombUncertEvalMethod","nCombUncertLevOfConfid"],"nCombUncertLevOfConfid":95,"eCombUncertEvalMethod":"Propagation of evaluated standard uncertainties","nCombUncertAssessNum":1,"sCombUncertEvaluator":"Data file compiler"}}],"eExpPurpose":"Principal objective of the work"},{"Property":[{"nPropNumber":1,"Property-MethodID":{"tml_elements":["PropertyGroup"],"PropertyGroup":{"TransportProp":{"tml_elements":["ePropName","eMethodName"],"ePropName":"Viscosity, Pa*s","eMethodName":"Falling or rolling sphere viscometry"},"tml_elements":["TransportProp"]}},"PropPhaseID":{"ePropPhase":"Liquid","tml_elements":["ePropPhase"]},"tml_elements":["nPropNumber","Property-MethodID","PropPhaseID","ePresentation","CombinedUncertainty"],"ePresentation":"Direct value, X","CombinedUncertainty":{"eCombUncertEvalMethod":"Propagation of evaluated standard uncertainties","nCombUncertLevOfConfid":95,"tml_elements":["nCombUncertAssessNum","sCombUncertEvaluator","eCombUncertEvalMethod","nCombUncertLevOfConfid"],"sCombUncertEvaluator":"Data file compiler","nCombUncertAssessNum":1}}],"eExpPurpose":"Principal objective of the work","nPureOrMixtureDataNumber":3,"dateDateAdded":"11/7/2017","sCompiler":"EP","NumValues":[{"VariableValue":[{"tml_elements":["nVarNumber","nVarValue","nVarDigits"],"nVarDigits":5,"nVarNumber":1,"nVarValue":298.15},{"nVarValue":100,"nVarNumber":2,"tml_elements":["nVarNumber","nVarValue","nVarDigits"],"nVarDigits":1}],"PropertyValue":[{"nPropDigits":4,"nPropNumber":1,"tml_elements":["nPropNumber","nPropValue","nPropDigits","CombinedUncertainty"],"nPropValue":0.000894,"CombinedUncertainty":{"nCombUncertAssessNum":1,"tml_elements":["nCombUncertAssessNum","nCombExpandUncertValue"],"nCombExpandUncertValue":1.11e-05}}],"tml_elements":["VariableValue","PropertyValue"]}],"tml_elements":["nPureOrMixtureDataNumber","Component","eExpPurpose","sCompiler","sContributor","dateDateAdded","Property","PhaseID","Variable","NumValues"],"PhaseID":[{"tml_elements":["ePhase"],"ePhase":"Liquid"}],"Component":[{"tml_elements":["RegNum","nSampleNm"],"RegNum":{"nOrgNum":2,"tml_elements":["nOrgNum"]},"nSampleNm":1}],"sContributor":"EP","Variable":[{"VarPhaseID":{"eVarPhase":"Liquid","tml_elements":["eVarPhase"]},"nVarNumber":1,"tml_elements":["nVarNumber","VariableID","VarPhaseID"],"VariableID":{"VariableType":{"eTemperature":"Temperature, K","tml_elements":["eTemperature"]},"tml_elements":["VariableType"]}},{"nVarNumber":2,"VarPhaseID":{"eVarPhase":"Liquid","tml_elements":["eVarPhase"]},"tml_elements":["nVarNumber","VariableID","VarPhaseID"],"VariableID":{"tml_elements":["VariableType"],"VariableType":{"tml_elements":["ePressure"],"ePressure":"Pressure, kPa"}}}]},{"PhaseID":[{"ePhase":"Liquid","tml_elements":["ePhase"]}],"tml_elements":["nPureOrMixtureDataNumber","Component","eExpPurpose","sCompiler","sContributor","dateDateAdded","Property","PhaseID","Constraint","Variable","NumValues"],"Constraint":[{"ConstraintPhaseID":{"eConstraintPhase":"Liquid","tml_elements":["eConstraintPhase"]},"ConstraintID":{"tml_elements":["ConstraintType"],"ConstraintType":{"tml_elements":["eTemperature"],"eTemperature":"Temperature, K"}},"tml_elements":["nConstraintNumber","ConstraintID","ConstraintPhaseID","nConstraintValue","nConstrDigits"],"nConstrDigits":5,"nConstraintNumber":1,"nConstraintValue":298.15},{"nConstraintValue":100,"ConstraintPhaseID":{"tml_elements":["eConstraintPhase"],"eConstraintPhase":"Liquid"},"nConstrDigits":1,"nConstraintNumber":2,"tml_elements":["nConstraintNumber","ConstraintID","ConstraintPhaseID","nConstraintValue","nConstrDigits"],"ConstraintID":{"tml_elements":["ConstraintType"],"ConstraintType":{"ePressure":"Pressure, kPa","tml_elements":["ePressure"]}}}],"sContributor":"EP","Component":[{"RegNum":{"nOrgNum":1,"tml_elements":["nOrgNum"]},"nSampleNm":1,"tml_elements":["RegNum","nSampleNm"]},{"nSampleNm":1,"RegNum":{"nOrgNum":2,"tml_elements":["nOrgNum"]},"tml_elements":["RegNum","nSampleNm"]}],"Variable":[{"VariableID":{"RegNum":{"tml_elements":["nOrgNum"],"nOrgNum":1},"VariableType":{"tml_elements":["eComponentComposition"],"eComponentComposition":"Mass fraction"},"tml_elements":["VariableType","RegNum"]},"nVarNumber":1,"VarPhaseID":{"eVarPhase":"Liquid","tml_elements":["eVarPhase"]},"tml_elements":["nVarNumber","VariableID","VarPhaseID"]}],"Property":[{"CombinedUncertainty":{"eCombUncertEvalMethod":"Propagation of evaluated standard uncertainties","nCombUncertLevOfConfid":95,"tml_elements":["nCombUncertAssessNum","sCombUncertEvaluator","eCombUncertEvalMethod","nCombUncertLevOfConfid"],"sCombUncertEvaluator":"Data file compiler","nCombUncertAssessNum":1},"Property-MethodID":{"tml_elements":["PropertyGroup"],"PropertyGroup":{"tml_elements":["RefractionSurfaceTensionSoundSpeed"],"RefractionSurfaceTensionSoundSpeed":{"tml_elements":["ePropName","eMethodName"],"eMethodName":"Standard Abbe refractometry","ePropName":"Refractive index (Na D-line)"}}},"PropPhaseID":{"ePropPhase":"Liquid","tml_elements":["ePropPhase"]},"nPropNumber":1,"ePresentation":"Direct value, X","tml_elements":["nPropNumber","Property-MethodID","PropPhaseID","ePresentation","CombinedUncertainty"]}],"eExpPurpose":"Principal objective of the work","sCompiler":"EP","nPureOrMixtureDataNumber":4,"dateDateAdded":"11/16/2017","NumValues":[{"tml_elements":["VariableValue","PropertyValue"],"PropertyValue":[{"nPropValue":1.3327,"CombinedUncertainty":{"tml_elements":["nCombUncertAssessNum","nCombExpandUncertValue"],"nCombExpandUncertValue":0.0004,"nCombUncertAssessNum":1},"nPropNumber":1,"nPropDigits":5,"tml_elements":["nPropNumber","nPropValue","nPropDigits","CombinedUncertainty"]}],"VariableValue":[{"nVarValue":0,"nVarDigits":3,"tml_elements":["nVarNumber","nVarValue","nVarDigits"],"nVarNumber":1}]},{"PropertyValue":[{"CombinedUncertainty":{"tml_elements":["nCombUncertAssessNum","nCombExpandUncertValue"],"nCombExpandUncertValue":0.0024,"nCombUncertAssessNum":1},"nPropValue":1.3345,"tml_elements":["nPropNumber","nPropValue","nPropDigits","CombinedUncertainty"],"nPropNumber":1,"nPropDigits":5}],"tml_elements":["VariableValue","PropertyValue"],"VariableValue":[{"nVarNumber":1,"tml_elements":["nVarNumber","nVarValue","nVarDigits"],"nVarDigits":1,"nVarValue":0.02}]},{"tml_elements":["VariableValue","PropertyValue"],"PropertyValue":[{"nPropValue":1.3374,"CombinedUncertainty":{"nCombUncertAssessNum":1,"tml_elements":["nCombUncertAssessNum","nCombExpandUncertValue"],"nCombExpandUncertValue":0.0029},"nPropNumber":1,"nPropDigits":5,"tml_elements":["nPropNumber","nPropValue","nPropDigits","CombinedUncertainty"]}],"VariableValue":[{"nVarValue":0.04,"tml_elements":["nVarNumber","nVarValue","nVarDigits"],"nVarDigits":1,"nVarNumber":1}]},{"PropertyValue":[{"tml_elements":["nPropNumber","nPropValue","nPropDigits","CombinedUncertainty"],"nPropDigits":5,"nPropNumber":1,"nPropValue":1.3403,"CombinedUncertainty":{"tml_elements":["nCombUncertAssessNum","nCombExpandUncertValue"],"nCombExpandUncertValue":0.0029,"nCombUncertAssessNum":1}}],"tml_elements":["VariableValue","PropertyValue"],"VariableValue":[{"nVarValue":0.06,"nVarNumber":1,"nVarDigits":1,"tml_elements":["nVarNumber","nVarValue","nVarDigits"]}]},{"VariableValue":[{"nVarNumber":1,"nVarDigits":1,"tml_elements":["nVarNumber","nVarValue","nVarDigits"],"nVarValue":0.08}],"tml_elements":["VariableValue","PropertyValue"],"PropertyValue":[{"nPropValue":1.3432,"CombinedUncertainty":{"nCombUncertAssessNum":1,"nCombExpandUncertValue":0.0029,"tml_elements":["nCombUncertAssessNum","nCombExpandUncertValue"]},"tml_elements":["nPropNumber","nPropValue","nPropDigits","CombinedUncertainty"],"nPropNumber":1,"nPropDigits":5}]},{"VariableValue":[{"nVarValue":0.1,"tml_elements":["nVarNumber","nVarValue","nVarDigits"],"nVarDigits":2,"nVarNumber":1}],"tml_elements":["VariableValue","PropertyValue"],"PropertyValue":[{"nPropNumber":1,"nPropDigits":5,"tml_elements":["nPropNumber","nPropValue","nPropDigits","CombinedUncertainty"],"CombinedUncertainty":{"tml_elements":["nCombUncertAssessNum","nCombExpandUncertValue"],"nCombExpandUncertValue":0.0029,"nCombUncertAssessNum":1},"nPropValue":1.3461}]},{"VariableValue":[{"nVarNumber":1,"tml_elements":["nVarNumber","nVarValue","nVarDigits"],"nVarDigits":2,"nVarValue":0.15}],"tml_elements":["VariableValue","PropertyValue"],"PropertyValue":[{"tml_elements":["nPropNumber","nPropValue","nPropDigits","CombinedUncertainty"],"nPropNumber":1,"nPropDigits":5,"nPropValue":1.3533,"CombinedUncertainty":{"tml_elements":["nCombUncertAssessNum","nCombExpandUncertValue"],"nCombExpandUncertValue":0.0029,"nCombUncertAssessNum":1}}]},{"tml_elements":["VariableValue","PropertyValue"],"PropertyValue":[{"nPropDigits":5,"nPropNumber":1,"tml_elements":["nPropNumber","nPropValue","nPropDigits","CombinedUncertainty"],"nPropValue":1.3606,"CombinedUncertainty":{"nCombUncertAssessNum":1,"nCombExpandUncertValue":0.0029,"tml_elements":["nCombUncertAssessNum","nCombExpandUncertValue"]}}],"VariableValue":[{"tml_elements":["nVarNumber","nVarValue","nVarDigits"],"nVarDigits":2,"nVarNumber":1,"nVarValue":0.2}]},{"VariableValue":[{"nVarValue":0.25,"nVarNumber":1,"nVarDigits":2,"tml_elements":["nVarNumber","nVarValue","nVarDigits"]}],"PropertyValue":[{"nPropNumber":1,"nPropDigits":5,"tml_elements":["nPropNumber","nPropValue","nPropDigits","CombinedUncertainty"],"CombinedUncertainty":{"tml_elements":["nCombUncertAssessNum","nCombExpandUncertValue"],"nCombExpandUncertValue":0.0029,"nCombUncertAssessNum":1},"nPropValue":1.3678}],"tml_elements":["VariableValue","PropertyValue"]},{"tml_elements":["VariableValue","PropertyValue"],"PropertyValue":[{"CombinedUncertainty":{"nCombUncertAssessNum":1,"nCombExpandUncertValue":0.0029,"tml_elements":["nCombUncertAssessNum","nCombExpandUncertValue"]},"nPropValue":1.375,"tml_elements":["nPropNumber","nPropValue","nPropDigits","CombinedUncertainty"],"nPropDigits":5,"nPropNumber":1}],"VariableValue":[{"nVarValue":0.3,"nVarNumber":1,"nVarDigits":2,"tml_elements":["nVarNumber","nVarValue","nVarDigits"]}]},{"VariableValue":[{"tml_elements":["nVarNumber","nVarValue","nVarDigits"],"nVarDigits":2,"nVarNumber":1,"nVarValue":0.4}],"tml_elements":["VariableValue","PropertyValue"],"PropertyValue":[{"nPropValue":1.3895,"CombinedUncertainty":{"nCombUncertAssessNum":1,"tml_elements":["nCombUncertAssessNum","nCombExpandUncertValue"],"nCombExpandUncertValue":0.0029},"nPropDigits":5,"nPropNumber":1,"tml_elements":["nPropNumber","nPropValue","nPropDigits","CombinedUncertainty"]}]}]},{"Component":[{"nSampleNm":1,"RegNum":{"tml_elements":["nOrgNum"],"nOrgNum":1},"tml_elements":["RegNum","nSampleNm"]},{"tml_elements":["RegNum","nSampleNm"],"RegNum":{"nOrgNum":2,"tml_elements":["nOrgNum"]},"nSampleNm":1}],"tml_elements":["nPureOrMixtureDataNumber","Component","eExpPurpose","sCompiler","sContributor","dateDateAdded","Property","PhaseID","Constraint","Variable","NumValues"],"PhaseID":[{"ePhase":"Liquid","tml_elements":["ePhase"]}],"sContributor":"EP","Variable":[{"tml_elements":["nVarNumber","VariableID","VarPhaseID"],"nVarNumber":1,"VarPhaseID":{"eVarPhase":"Liquid","tml_elements":["eVarPhase"]},"VariableID":{"VariableType":{"tml_elements":["eComponentComposition"],"eComponentComposition":"Mass fraction"},"tml_elements":["VariableType","RegNum"],"RegNum":{"nOrgNum":1,"tml_elements":["nOrgNum"]}}}],"Constraint":[{"nConstraintValue":298.15,"nConstraintNumber":1,"nConstrDigits":5,"tml_elements":["nConstraintNumber","ConstraintID","ConstraintPhaseID","nConstraintValue","nConstrDigits"],"ConstraintID":{"ConstraintType":{"eTemperature":"Temperature, K","tml_elements":["eTemperature"]},"tml_elements":["ConstraintType"]},"ConstraintPhaseID":{"tml_elements":["eConstraintPhase"],"eConstraintPhase":"Liquid"}},{"nConstraintValue":100,"tml_elements":["nConstraintNumber","ConstraintID","ConstraintPhaseID","nConstraintValue","nConstrDigits"],"ConstraintPhaseID":{"eConstraintPhase":"Liquid","tml_elements":["eConstraintPhase"]},"nConstraintNumber":2,"nConstrDigits":1,"ConstraintID":{"ConstraintType":{"tml_elements":["ePressure"],"ePressure":"Pressure, kPa"},"tml_elements":["ConstraintType"]}}],"eExpPurpose":"Principal objective of the work","Property":[{"tml_elements":["nPropNumber","Property-MethodID","PropPhaseID","ePresentation","CombinedUncertainty"],"ePresentation":"Direct value, X","nPropNumber":1,"PropPhaseID":{"tml_elements":["ePropPhase"],"ePropPhase":"Liquid"},"Property-MethodID":{"PropertyGroup":{"tml_elements":["VolumetricProp"],"VolumetricProp":{"tml_elements":["ePropName","eMethodName"],"eMethodName":"Vibrating tube method","ePropName":"Mass density, kg/m3"}},"tml_elements":["PropertyGroup"]},"CombinedUncertainty":{"sCombUncertEvaluator":"Data file compiler","nCombUncertAssessNum":1,"nCombUncertLevOfConfid":95,"eCombUncertEvalMethod":"Propagation of evaluated standard uncertainties","tml_elements":["nCombUncertAssessNum","sCombUncertEvaluator","eCombUncertEvalMethod","nCombUncertLevOfConfid"]}}],"NumValues":[{"VariableValue":[{"nVarNumber":1,"tml_elements":["nVarNumber","nVarValue","nVarDigits"],"nVarDigits":3,"nVarValue":0}],"PropertyValue":[{"CombinedUncertainty":{"nCombUncertAssessNum":1,"nCombExpandUncertValue":0.4,"tml_elements":["nCombUncertAssessNum","nCombExpandUncertValue"]},"nPropValue":997,"nPropNumber":1,"nPropDigits":4,"tml_elements":["nPropNumber","nPropValue","nPropDigits","CombinedUncertainty"]}],"tml_elements":["VariableValue","PropertyValue"]},{"tml_elements":["VariableValue","PropertyValue"],"PropertyValue":[{"CombinedUncertainty":{"nCombUncertAssessNum":1,"tml_elements":["nCombUncertAssessNum","nCombExpandUncertValue"],"nCombExpandUncertValue":11.3},"nPropValue":1006,"nPropNumber":1,"nPropDigits":5,"tml_elements":["nPropNumber","nPropValue","nPropDigits","CombinedUncertainty"]}],"VariableValue":[{"nVarValue":0.02,"nVarDigits":1,"tml_elements":["nVarNumber","nVarValue","nVarDigits"],"nVarNumber":1}]},{"VariableValue":[{"nVarDigits":1,"tml_elements":["nVarNumber","nVarValue","nVarDigits"],"nVarNumber":1,"nVarValue":0.04}],"PropertyValue":[{"nPropValue":1019.6,"CombinedUncertainty":{"nCombExpandUncertValue":13.7,"tml_elements":["nCombUncertAssessNum","nCombExpandUncertValue"],"nCombUncertAssessNum":1},"tml_elements":["nPropNumber","nPropValue","nPropDigits","CombinedUncertainty"],"nPropDigits":5,"nPropNumber":1}],"tml_elements":["VariableValue","PropertyValue"]},{"VariableValue":[{"nVarValue":0.06,"nVarNumber":1,"tml_elements":["nVarNumber","nVarValue","nVarDigits"],"nVarDigits":1}],"tml_elements":["VariableValue","PropertyValue"],"PropertyValue":[{"nPropDigits":5,"nPropNumber":1,"tml_elements":["nPropNumber","nPropValue","nPropDigits","CombinedUncertainty"],"CombinedUncertainty":{"nCombUncertAssessNum":1,"tml_elements":["nCombUncertAssessNum","nCombExpandUncertValue"],"nCombExpandUncertValue":13.7},"nPropValue":1033.3}]},{"PropertyValue":[{"nPropNumber":1,"nPropDigits":5,"tml_elements":["nPropNumber","nPropValue","nPropDigits","CombinedUncertainty"],"CombinedUncertainty":{"nCombUncertAssessNum":1,"tml_elements":["nCombUncertAssessNum","nCombExpandUncertValue"],"nCombExpandUncertValue":13.7},"nPropValue":1046.9}],"tml_elements":["VariableValue","PropertyValue"],"VariableValue":[{"nVarValue":0.08,"nVarNumber":1,"tml_elements":["nVarNumber","nVarValue","nVarDigits"],"nVarDigits":1}]},{"tml_elements":["VariableValue","PropertyValue"],"PropertyValue":[{"nPropDigits":5,"nPropNumber":1,"tml_elements":["nPropNumber","nPropValue","nPropDigits","CombinedUncertainty"],"nPropValue":1060.6,"CombinedUncertainty":{"nCombUncertAssessNum":1,"nCombExpandUncertValue":13.7,"tml_elements":["nCombUncertAssessNum","nCombExpandUncertValue"]}}],"VariableValue":[{"nVarNumber":1,"nVarDigits":2,"tml_elements":["nVarNumber","nVarValue","nVarDigits"],"nVarValue":0.1}]},{"VariableValue":[{"tml_elements":["nVarNumber","nVarValue","nVarDigits"],"nVarDigits":2,"nVarNumber":1,"nVarValue":0.15}],"tml_elements":["VariableValue","PropertyValue"],"PropertyValue":[{"nPropNumber":1,"nPropDigits":5,"tml_elements":["nPropNumber","nPropValue","nPropDigits","CombinedUncertainty"],"nPropValue":1094.7,"CombinedUncertainty":{"tml_elements":["nCombUncertAssessNum","nCombExpandUncertValue"],"nCombExpandUncertValue":13.7,"nCombUncertAssessNum":1}}]},{"PropertyValue":[{"CombinedUncertainty":{"tml_elements":["nCombUncertAssessNum","nCombExpandUncertValue"],"nCombExpandUncertValue":13.7,"nCombUncertAssessNum":1},"nPropValue":1128.9,"nPropDigits":5,"nPropNumber":1,"tml_elements":["nPropNumber","nPropValue","nPropDigits","CombinedUncertainty"]}],"tml_elements":["VariableValue","PropertyValue"],"VariableValue":[{"nVarNumber":1,"tml_elements":["nVarNumber","nVarValue","nVarDigits"],"nVarDigits":2,"nVarValue":0.2}]},{"PropertyValue":[{"nPropDigits":5,"nPropNumber":1,"tml_elements":["nPropNumber","nPropValue","nPropDigits","CombinedUncertainty"],"nPropValue":1163,"CombinedUncertainty":{"nCombUncertAssessNum":1,"tml_elements":["nCombUncertAssessNum","nCombExpandUncertValue"],"nCombExpandUncertValue":13.6}}],"tml_elements":["VariableValue","PropertyValue"],"VariableValue":[{"nVarNumber":1,"tml_elements":["nVarNumber","nVarValue","nVarDigits"],"nVarDigits":2,"nVarValue":0.25}]},{"tml_elements":["VariableValue","PropertyValue"],"PropertyValue":[{"tml_elements":["nPropNumber","nPropValue","nPropDigits","CombinedUncertainty"],"nPropDigits":5,"nPropNumber":1,"CombinedUncertainty":{"nCombUncertAssessNum":1,"nCombExpandUncertValue":13.7,"tml_elements":["nCombUncertAssessNum","nCombExpandUncertValue"]},"nPropValue":1197.1}],"VariableValue":[{"tml_elements":["nVarNumber","nVarValue","nVarDigits"],"nVarDigits":2,"nVarNumber":1,"nVarValue":0.3}]},{"VariableValue":[{"nVarValue":0.4,"nVarNumber":1,"tml_elements":["nVarNumber","nVarValue","nVarDigits"],"nVarDigits":2}],"PropertyValue":[{"tml_elements":["nPropNumber","nPropValue","nPropDigits","CombinedUncertainty"],"nPropDigits":5,"nPropNumber":1,"CombinedUncertainty":{"tml_elements":["nCombUncertAssessNum","nCombExpandUncertValue"],"nCombExpandUncertValue":13.7,"nCombUncertAssessNum":1},"nPropValue":1265.4}],"tml_elements":["VariableValue","PropertyValue"]}],"nPureOrMixtureDataNumber":5,"dateDateAdded":"11/16/2017","sCompiler":"EP"},{"nPureOrMixtureDataNumber":6,"dateDateAdded":"11/16/2017","sCompiler":"EP","NumValues":[{"VariableValue":[{"nVarValue":0,"nVarNumber":1,"tml_elements":["nVarNumber","nVarValue","nVarDigits"],"nVarDigits":3}],"PropertyValue":[{"nPropDigits":3,"nPropNumber":1,"tml_elements":["nPropNumber","nPropValue","nPropDigits","CombinedUncertainty"],"CombinedUncertainty":{"tml_elements":["nCombUncertAssessNum","nCombExpandUncertValue"],"nCombExpandUncertValue":1.1e-05,"nCombUncertAssessNum":1},"nPropValue":0.000894}],"tml_elements":["VariableValue","PropertyValue"]},{"VariableValue":[{"nVarValue":0.02,"nVarDigits":1,"tml_elements":["nVarNumber","nVarValue","nVarDigits"],"nVarNumber":1}],"PropertyValue":[{"nPropValue":0.000929,"CombinedUncertainty":{"nCombUncertAssessNum":1,"tml_elements":["nCombUncertAssessNum","nCombExpandUncertValue"],"nCombExpandUncertValue":3.7e-05},"nPropDigits":3,"nPropNumber":1,"tml_elements":["nPropNumber","nPropValue","nPropDigits","CombinedUncertainty"]}],"tml_elements":["VariableValue","PropertyValue"]},{"PropertyValue":[{"CombinedUncertainty":{"nCombUncertAssessNum":1,"tml_elements":["nCombUncertAssessNum","nCombExpandUncertValue"],"nCombExpandUncertValue":3.7e-05},"nPropValue":0.000965,"tml_elements":["nPropNumber","nPropValue","nPropDigits","CombinedUncertainty"],"nPropDigits":3,"nPropNumber":1}],"tml_elements":["VariableValue","PropertyValue"],"VariableValue":[{"nVarNumber":1,"nVarDigits":1,"tml_elements":["nVarNumber","nVarValue","nVarDigits"],"nVarValue":0.04}]},{"VariableValue":[{"nVarNumber":1,"nVarDigits":1,"tml_elements":["nVarNumber","nVarValue","nVarDigits"],"nVarValue":0.06}],"PropertyValue":[{"CombinedUncertainty":{"nCombUncertAssessNum":1,"nCombExpandUncertValue":3.9e-05,"tml_elements":["nCombUncertAssessNum","nCombExpandUncertValue"]},"nPropValue":0.000998,"nPropNumber":1,"nPropDigits":3,"tml_elements":["nPropNumber","nPropValue","nPropDigits","CombinedUncertainty"]}],"tml_elements":["VariableValue","PropertyValue"]},{"tml_elements":["VariableValue","PropertyValue"],"PropertyValue":[{"CombinedUncertainty":{"nCombUncertAssessNum":1,"nCombExpandUncertValue":4.8e-05,"tml_elements":["nCombUncertAssessNum","nCombExpandUncertValue"]},"nPropValue":0.00104,"tml_elements":["nPropNumber","nPropValue","nPropDigits","CombinedUncertainty"],"nPropNumber":1,"nPropDigits":4}],"VariableValue":[{"nVarValue":0.08,"nVarNumber":1,"nVarDigits":1,"tml_elements":["nVarNumber","nVarValue","nVarDigits"]}]},{"VariableValue":[{"nVarValue":0.1,"tml_elements":["nVarNumber","nVarValue","nVarDigits"],"nVarDigits":2,"nVarNumber":1}],"tml_elements":["VariableValue","PropertyValue"],"PropertyValue":[{"nPropValue":0.00109,"CombinedUncertainty":{"nCombExpandUncertValue":4.5e-05,"tml_elements":["nCombUncertAssessNum","nCombExpandUncertValue"],"nCombUncertAssessNum":1},"nPropDigits":4,"nPropNumber":1,"tml_elements":["nPropNumber","nPropValue","nPropDigits","CombinedUncertainty"]}]},{"PropertyValue":[{"nPropValue":0.001191,"CombinedUncertainty":{"nCombExpandUncertValue":4.7e-05,"tml_elements":["nCombUncertAssessNum","nCombExpandUncertValue"],"nCombUncertAssessNum":1},"tml_elements":["nPropNumber","nPropValue","nPropDigits","CombinedUncertainty"],"nPropDigits":4,"nPropNumber":1}],"tml_elements":["VariableValue","PropertyValue"],"VariableValue":[{"nVarNumber":1,"nVarDigits":2,"tml_elements":["nVarNumber","nVarValue","nVarDigits"],"nVarValue":0.15}]},{"tml_elements":["VariableValue","PropertyValue"],"PropertyValue":[{"tml_elements":["nPropNumber","nPropValue","nPropDigits","CombinedUncertainty"],"nPropNumber":1,"nPropDigits":4,"nPropValue":0.001313,"CombinedUncertainty":{"nCombUncertAssessNum":1,"nCombExpandUncertValue":5.6e-05,"tml_elements":["nCombUncertAssessNum","nCombExpandUncertValue"]}}],"VariableValue":[{"tml_elements":["nVarNumber","nVarValue","nVarDigits"],"nVarDigits":2,"nVarNumber":1,"nVarValue":0.2}]},{"PropertyValue":[{"tml_elements":["nPropNumber","nPropValue","nPropDigits","CombinedUncertainty"],"nPropDigits":4,"nPropNumber":1,"nPropValue":0.00146,"CombinedUncertainty":{"nCombUncertAssessNum":1,"tml_elements":["nCombUncertAssessNum","nCombExpandUncertValue"],"nCombExpandUncertValue":5.8e-05}}],"tml_elements":["VariableValue","PropertyValue"],"VariableValue":[{"nVarNumber":1,"tml_elements":["nVarNumber","nVarValue","nVarDigits"],"nVarDigits":2,"nVarValue":0.25}]},{"tml_elements":["VariableValue","PropertyValue"],"PropertyValue":[{"nPropDigits":4,"nPropNumber":1,"tml_elements":["nPropNumber","nPropValue","nPropDigits","CombinedUncertainty"],"nPropValue":0.00159,"CombinedUncertainty":{"tml_elements":["nCombUncertAssessNum","nCombExpandUncertValue"],"nCombExpandUncertValue":6.4e-05,"nCombUncertAssessNum":1}}],"VariableValue":[{"nVarValue":0.3,"tml_elements":["nVarNumber","nVarValue","nVarDigits"],"nVarDigits":2,"nVarNumber":1}]},{"PropertyValue":[{"nPropDigits":4,"nPropNumber":1,"tml_elements":["nPropNumber","nPropValue","nPropDigits","CombinedUncertainty"],"nPropValue":0.00191,"CombinedUncertainty":{"nCombExpandUncertValue":6.8e-05,"tml_elements":["nCombUncertAssessNum","nCombExpandUncertValue"],"nCombUncertAssessNum":1}}],"tml_elements":["VariableValue","PropertyValue"],"VariableValue":[{"tml_elements":["nVarNumber","nVarValue","nVarDigits"],"nVarDigits":2,"nVarNumber":1,"nVarValue":0.4}]}],"eExpPurpose":"Principal objective of the work","Property":[{"Property-MethodID":{"tml_elements":["PropertyGroup"],"PropertyGroup":{"tml_elements":["TransportProp"],"TransportProp":{"eMethodName":"Falling or rolling sphere viscometry","ePropName":"Viscosity, Pa*s","tml_elements":["ePropName","eMethodName"]}}},"PropPhaseID":{"ePropPhase":"Liquid","tml_elements":["ePropPhase"]},"nPropNumber":1,"ePresentation":"Direct value, X","tml_elements":["nPropNumber","Property-MethodID","PropPhaseID","ePresentation","CombinedUncertainty"],"CombinedUncertainty":{"eCombUncertEvalMethod":"Propagation of evaluated standard uncertainties","nCombUncertLevOfConfid":95,"tml_elements":["nCombUncertAssessNum","sCombUncertEvaluator","eCombUncertEvalMethod","nCombUncertLevOfConfid"],"sCombUncertEvaluator":"Data file compiler","nCombUncertAssessNum":1}}],"Constraint":[{"ConstraintID":{"tml_elements":["ConstraintType"],"ConstraintType":{"eTemperature":"Temperature, K","tml_elements":["eTemperature"]}},"nConstraintNumber":1,"nConstrDigits":5,"ConstraintPhaseID":{"eConstraintPhase":"Liquid","tml_elements":["eConstraintPhase"]},"tml_elements":["nConstraintNumber","ConstraintID","ConstraintPhaseID","nConstraintValue","nConstrDigits"],"nConstraintValue":298.15},{"nConstraintValue":100,"tml_elements":["nConstraintNumber","ConstraintID","ConstraintPhaseID","nConstraintValue","nConstrDigits"],"ConstraintPhaseID":{"tml_elements":["eConstraintPhase"],"eConstraintPhase":"Liquid"},"ConstraintID":{"tml_elements":["ConstraintType"],"ConstraintType":{"ePressure":"Pressure, kPa","tml_elements":["ePressure"]}},"nConstraintNumber":2,"nConstrDigits":1}],"sContributor":"EP","Variable":[{"VariableID":{"tml_elements":["VariableType","RegNum"],"VariableType":{"tml_elements":["eComponentComposition"],"eComponentComposition":"Mass fraction"},"RegNum":{"tml_elements":["nOrgNum"],"nOrgNum":1}},"tml_elements":["nVarNumber","VariableID","VarPhaseID"],"VarPhaseID":{"tml_elements":["eVarPhase"],"eVarPhase":"Liquid"},"nVarNumber":1}],"tml_elements":["nPureOrMixtureDataNumber","Component","eExpPurpose","sCompiler","sContributor","dateDateAdded","Property","PhaseID","Constraint","Variable","NumValues"],"PhaseID":[{"ePhase":"Liquid","tml_elements":["ePhase"]}],"Component":[{"nSampleNm":1,"RegNum":{"nOrgNum":1,"tml_elements":["nOrgNum"]},"tml_elements":["RegNum","nSampleNm"]},{"tml_elements":["RegNum","nSampleNm"],"nSampleNm":1,"RegNum":{"nOrgNum":2,"tml_elements":["nOrgNum"]}}]}],"Version":{"nVersionMinor":0,"nVersionMajor":2,"tml_elements":["nVersionMajor","nVersionMinor"]}}