{"Citation":{"sPubName":"J. Chem. Eng. Data","yrPubYr":"2004","dateCit":"2020-09-29","sIDNum":"5","sPage":"1247-1248","eType":"journal","sVol":"49","eSourceType":"Original","TRCRefID":{"tml_elements":["yrYrPub","sAuthor1","sAuthor2","nAuthorn"],"nAuthorn":"0","sAuthor1":"kat","sAuthor2":"kod","yrYrPub":"2004"},"sAbstract":"The vapor-liquid equilibrium behavior of durene in methanol or ethanol was measured at atmospheric pressure (98 kPa) in the dilute composition range of durene with a recirculation still. Equilibrium compositions were determined with an ultraviolet spectrometer. The reliability of the compositions seems to be +/-1 x 10-6 mole fraction of durene. The accuracies of temperature and pressure are +/-0.01 K and +/-0.01 kPa, respectively. The volatilities Ki = yi/xi of durene at infinite dilution were determined to be 0.173 and 0.162 in methanol and ethanol, respectively.","sTitle":"Vapor-Liquid Equilibrium of Durene in Methanol or Ethanol","sDOI":"10.1021/je034227w","tml_elements":["TRCRefID","eType","eSourceType","sAuthor","sPubName","yrPubYr","dateCit","sTitle","sAbstract","sKeyword","sDOI","sIDNum","sVol","sPage"],"sKeyword":["Vapor-Liquid Equilibrium","Durene","Methanol","Ethanol"],"sAuthor":["Kato, M.[Masahiro]","Kodama, D.[Daisuke]"]},"Version":{"tml_elements":["nVersionMajor","nVersionMinor"],"nVersionMinor":0,"nVersionMajor":2},"tml_elements":["Version","Citation","Compound","PureOrMixtureData"],"PureOrMixtureData":[{"eExpPurpose":"Principal objective of the work","Property":[{"nPropNumber":1,"PropPhaseID":{"tml_elements":["ePropPhase"],"ePropPhase":"Liquid"},"tml_elements":["nPropNumber","Property-MethodID","PropPhaseID","ePresentation","CombinedUncertainty"],"ePresentation":"Direct value, X","CombinedUncertainty":{"nCombUncertAssessNum":1,"sCombUncertEvaluator":"Data file compiler","tml_elements":["nCombUncertAssessNum","sCombUncertEvaluator","eCombUncertEvalMethod","nCombUncertLevOfConfid"],"nCombUncertLevOfConfid":95,"eCombUncertEvalMethod":"Propagation of evaluated standard uncertainties"},"Property-MethodID":{"PropertyGroup":{"VaporPBoilingTAzeotropTandP":{"tml_elements":["ePropName","sMethodName"],"ePropName":"Normal boiling temperature, K","sMethodName":"EBULLIO:UFactor:8"},"tml_elements":["VaporPBoilingTAzeotropTandP"]},"tml_elements":["PropertyGroup"]}}],"dateDateAdded":"10/28/2004","nPureOrMixtureDataNumber":1,"sCompiler":"JOK","NumValues":[{"VariableValue":[],"tml_elements":["PropertyValue"],"PropertyValue":[{"tml_elements":["nPropNumber","nPropValue","nPropDigits","CombinedUncertainty"],"nPropDigits":5,"nPropNumber":1,"CombinedUncertainty":{"nCombUncertAssessNum":1,"nCombExpandUncertValue":0.03,"tml_elements":["nCombUncertAssessNum","nCombExpandUncertValue"]},"nPropValue":337.67}]}],"tml_elements":["nPureOrMixtureDataNumber","Component","eExpPurpose","sCompiler","sContributor","dateDateAdded","Property","PhaseID","NumValues"],"PhaseID":[{"ePhase":"Liquid","tml_elements":["ePhase"]},{"tml_elements":["ePhase"],"ePhase":"Gas"}],"Component":[{"tml_elements":["RegNum","nSampleNm"],"RegNum":{"nOrgNum":2,"tml_elements":["nOrgNum"]},"nSampleNm":1}],"sContributor":"TRC"},{"Variable":[{"tml_elements":["nVarNumber","VariableID","VarPhaseID"],"VarPhaseID":{"eVarPhase":"Liquid","tml_elements":["eVarPhase"]},"nVarNumber":1,"VariableID":{"tml_elements":["VariableType"],"VariableType":{"tml_elements":["eTemperature"],"eTemperature":"Temperature, K"}}},{"tml_elements":["nVarNumber","VariableID","VarPhaseID"],"nVarNumber":2,"VarPhaseID":{"eVarPhase":"Liquid","tml_elements":["eVarPhase"]},"VariableID":{"VariableType":{"tml_elements":["ePressure"],"ePressure":"Pressure, kPa"},"tml_elements":["VariableType"]}}],"sContributor":"TRC","Component":[{"tml_elements":["RegNum","nSampleNm"],"RegNum":{"tml_elements":["nOrgNum"],"nOrgNum":2},"nSampleNm":1}],"PhaseID":[{"tml_elements":["ePhase"],"ePhase":"Liquid"}],"tml_elements":["nPureOrMixtureDataNumber","Component","eExpPurpose","sCompiler","sContributor","dateDateAdded","Property","PhaseID","Variable","NumValues"],"NumValues":[{"tml_elements":["VariableValue","PropertyValue"],"PropertyValue":[{"nPropValue":786.5,"CombinedUncertainty":{"nCombUncertAssessNum":1,"nCombExpandUncertValue":5,"tml_elements":["nCombUncertAssessNum","nCombExpandUncertValue"]},"tml_elements":["nPropNumber","nPropValue","nPropDigits","CombinedUncertainty"],"nPropDigits":4,"nPropNumber":1}],"VariableValue":[{"nVarValue":298.15,"tml_elements":["nVarNumber","nVarValue","nVarDigits"],"nVarDigits":5,"nVarNumber":1},{"nVarValue":101.325,"nVarDigits":6,"tml_elements":["nVarNumber","nVarValue","nVarDigits"],"nVarNumber":2}]}],"sCompiler":"JOK","nPureOrMixtureDataNumber":2,"dateDateAdded":"10/28/2004","eExpPurpose":"Principal objective of the work","Property":[{"nPropNumber":1,"PropPhaseID":{"ePropPhase":"Liquid","tml_elements":["ePropPhase"]},"tml_elements":["nPropNumber","Property-MethodID","PropPhaseID","ePresentation","CombinedUncertainty"],"ePresentation":"Direct value, X","Property-MethodID":{"tml_elements":["PropertyGroup"],"PropertyGroup":{"VolumetricProp":{"tml_elements":["ePropName","sMethodName"],"ePropName":"Mass density, kg/m3","sMethodName":"UNKNOWN"},"tml_elements":["VolumetricProp"]}},"CombinedUncertainty":{"tml_elements":["nCombUncertAssessNum","sCombUncertEvaluator","eCombUncertEvalMethod","nCombUncertLevOfConfid"],"eCombUncertEvalMethod":"Propagation of evaluated standard uncertainties","nCombUncertLevOfConfid":95,"nCombUncertAssessNum":1,"sCombUncertEvaluator":"Data file compiler"}}]},{"PhaseID":[{"ePhase":"Liquid","tml_elements":["ePhase"]},{"ePhase":"Gas","tml_elements":["ePhase"]}],"tml_elements":["nPureOrMixtureDataNumber","Component","eExpPurpose","sCompiler","sContributor","dateDateAdded","Property","PhaseID","NumValues"],"Component":[{"RegNum":{"nOrgNum":3,"tml_elements":["nOrgNum"]},"nSampleNm":1,"tml_elements":["RegNum","nSampleNm"]}],"sContributor":"TRC","eExpPurpose":"Principal objective of the work","Property":[{"CombinedUncertainty":{"nCombUncertAssessNum":1,"sCombUncertEvaluator":"Data file compiler","tml_elements":["nCombUncertAssessNum","sCombUncertEvaluator","eCombUncertEvalMethod","nCombUncertLevOfConfid"],"nCombUncertLevOfConfid":95,"eCombUncertEvalMethod":"Propagation of evaluated standard uncertainties"},"tml_elements":["nPropNumber","Property-MethodID","PropPhaseID","ePresentation","CombinedUncertainty"],"ePresentation":"Direct value, X","nPropNumber":1,"PropPhaseID":{"ePropPhase":"Liquid","tml_elements":["ePropPhase"]},"Property-MethodID":{"PropertyGroup":{"tml_elements":["VaporPBoilingTAzeotropTandP"],"VaporPBoilingTAzeotropTandP":{"tml_elements":["ePropName","sMethodName"],"ePropName":"Normal boiling temperature, K","sMethodName":"EBULLIO:UFactor:8"}},"tml_elements":["PropertyGroup"]}}],"sCompiler":"JOK","dateDateAdded":"10/28/2004","nPureOrMixtureDataNumber":3,"NumValues":[{"PropertyValue":[{"nPropNumber":1,"nPropDigits":5,"tml_elements":["nPropNumber","nPropValue","nPropDigits","CombinedUncertainty"],"nPropValue":351.46,"CombinedUncertainty":{"nCombUncertAssessNum":1,"nCombExpandUncertValue":0.03,"tml_elements":["nCombUncertAssessNum","nCombExpandUncertValue"]}}],"tml_elements":["PropertyValue"],"VariableValue":[]}]},{"tml_elements":["nPureOrMixtureDataNumber","Component","eExpPurpose","sCompiler","sContributor","dateDateAdded","Property","PhaseID","Variable","NumValues"],"PhaseID":[{"tml_elements":["ePhase"],"ePhase":"Liquid"}],"sContributor":"TRC","eExpPurpose":"Principal objective of the work","Property":[{"nPropNumber":1,"PropPhaseID":{"ePropPhase":"Liquid","tml_elements":["ePropPhase"]},"tml_elements":["nPropNumber","Property-MethodID","PropPhaseID","ePresentation","CombinedUncertainty"],"ePresentation":"Direct value, X","CombinedUncertainty":{"sCombUncertEvaluator":"Data file compiler","nCombUncertAssessNum":1,"nCombUncertLevOfConfid":95,"eCombUncertEvalMethod":"Propagation of evaluated standard uncertainties","tml_elements":["nCombUncertAssessNum","sCombUncertEvaluator","eCombUncertEvalMethod","nCombUncertLevOfConfid"]},"Property-MethodID":{"tml_elements":["PropertyGroup"],"PropertyGroup":{"VolumetricProp":{"tml_elements":["ePropName","sMethodName"],"ePropName":"Mass density, kg/m3","sMethodName":"UNKNOWN"},"tml_elements":["VolumetricProp"]}}}],"dateDateAdded":"10/28/2004","nPureOrMixtureDataNumber":4,"sCompiler":"JOK","NumValues":[{"PropertyValue":[{"nPropDigits":4,"nPropNumber":1,"tml_elements":["nPropNumber","nPropValue","nPropDigits","CombinedUncertainty"],"CombinedUncertainty":{"nCombUncertAssessNum":1,"nCombExpandUncertValue":5,"tml_elements":["nCombUncertAssessNum","nCombExpandUncertValue"]},"nPropValue":785.1}],"tml_elements":["VariableValue","PropertyValue"],"VariableValue":[{"nVarValue":298.15,"nVarNumber":1,"tml_elements":["nVarNumber","nVarValue","nVarDigits"],"nVarDigits":5},{"nVarValue":101.325,"nVarNumber":2,"nVarDigits":6,"tml_elements":["nVarNumber","nVarValue","nVarDigits"]}]}],"Component":[{"nSampleNm":1,"RegNum":{"nOrgNum":3,"tml_elements":["nOrgNum"]},"tml_elements":["RegNum","nSampleNm"]}],"Variable":[{"tml_elements":["nVarNumber","VariableID","VarPhaseID"],"VarPhaseID":{"tml_elements":["eVarPhase"],"eVarPhase":"Liquid"},"nVarNumber":1,"VariableID":{"VariableType":{"tml_elements":["eTemperature"],"eTemperature":"Temperature, K"},"tml_elements":["VariableType"]}},{"tml_elements":["nVarNumber","VariableID","VarPhaseID"],"nVarNumber":2,"VarPhaseID":{"tml_elements":["eVarPhase"],"eVarPhase":"Liquid"},"VariableID":{"VariableType":{"ePressure":"Pressure, kPa","tml_elements":["ePressure"]},"tml_elements":["VariableType"]}}]},{"sContributor":"TRC","Variable":[{"VarPhaseID":{"tml_elements":["eVarPhase"],"eVarPhase":"Liquid"},"nVarNumber":1,"tml_elements":["nVarNumber","VariableID","VarPhaseID"],"VariableID":{"tml_elements":["VariableType","RegNum"],"VariableType":{"eComponentComposition":"Mole fraction","tml_elements":["eComponentComposition"]},"RegNum":{"nOrgNum":1,"tml_elements":["nOrgNum"]}}},{"nVarNumber":2,"VarPhaseID":{"eVarPhase":"Liquid","tml_elements":["eVarPhase"]},"tml_elements":["nVarNumber","VariableID","VarPhaseID"],"VariableID":{"tml_elements":["VariableType"],"VariableType":{"tml_elements":["eTemperature"],"eTemperature":"Temperature, K"}}}],"tml_elements":["nPureOrMixtureDataNumber","Component","eExpPurpose","sCompiler","sContributor","dateDateAdded","Property","PhaseID","Variable","NumValues"],"PhaseID":[{"tml_elements":["ePhase"],"ePhase":"Liquid"},{"ePhase":"Gas","tml_elements":["ePhase"]}],"Component":[{"tml_elements":["RegNum","nSampleNm"],"nSampleNm":1,"RegNum":{"tml_elements":["nOrgNum"],"nOrgNum":2}},{"tml_elements":["RegNum","nSampleNm"],"RegNum":{"nOrgNum":1,"tml_elements":["nOrgNum"]},"nSampleNm":1}],"dateDateAdded":"10/28/2004","nPureOrMixtureDataNumber":5,"sCompiler":"JOK","NumValues":[{"VariableValue":[{"tml_elements":["nVarNumber","nVarValue","nVarDigits"],"nVarDigits":4,"nVarNumber":1,"nVarValue":0.001955},{"nVarValue":336.89,"nVarDigits":5,"tml_elements":["nVarNumber","nVarValue","nVarDigits"],"nVarNumber":2}],"PropertyValue":[{"nPropValue":98.31,"CombinedUncertainty":{"tml_elements":["nCombUncertAssessNum","nCombExpandUncertValue"],"nCombExpandUncertValue":0.18,"nCombUncertAssessNum":1},"tml_elements":["nPropNumber","nPropValue","nPropDigits","CombinedUncertainty"],"nPropNumber":1,"nPropDigits":4}],"tml_elements":["VariableValue","PropertyValue"]},{"PropertyValue":[{"tml_elements":["nPropNumber","nPropValue","nPropDigits","CombinedUncertainty"],"nPropNumber":1,"nPropDigits":4,"CombinedUncertainty":{"nCombUncertAssessNum":1,"tml_elements":["nCombUncertAssessNum","nCombExpandUncertValue"],"nCombExpandUncertValue":0.16},"nPropValue":98.36}],"tml_elements":["VariableValue","PropertyValue"],"VariableValue":[{"nVarValue":0.003911,"nVarDigits":4,"tml_elements":["nVarNumber","nVarValue","nVarDigits"],"nVarNumber":1},{"nVarNumber":2,"nVarDigits":5,"tml_elements":["nVarNumber","nVarValue","nVarDigits"],"nVarValue":336.92}]},{"PropertyValue":[{"CombinedUncertainty":{"tml_elements":["nCombUncertAssessNum","nCombExpandUncertValue"],"nCombExpandUncertValue":0.17,"nCombUncertAssessNum":1},"nPropValue":98.33,"nPropDigits":4,"nPropNumber":1,"tml_elements":["nPropNumber","nPropValue","nPropDigits","CombinedUncertainty"]}],"tml_elements":["VariableValue","PropertyValue"],"VariableValue":[{"nVarValue":0.006144,"nVarNumber":1,"nVarDigits":4,"tml_elements":["nVarNumber","nVarValue","nVarDigits"]},{"nVarValue":337,"nVarNumber":2,"tml_elements":["nVarNumber","nVarValue","nVarDigits"],"nVarDigits":5}]},{"tml_elements":["VariableValue","PropertyValue"],"PropertyValue":[{"tml_elements":["nPropNumber","nPropValue","nPropDigits","CombinedUncertainty"],"nPropDigits":4,"nPropNumber":1,"CombinedUncertainty":{"tml_elements":["nCombUncertAssessNum","nCombExpandUncertValue"],"nCombExpandUncertValue":0.18,"nCombUncertAssessNum":1},"nPropValue":98.13}],"VariableValue":[{"nVarValue":0.008112,"tml_elements":["nVarNumber","nVarValue","nVarDigits"],"nVarDigits":4,"nVarNumber":1},{"nVarValue":337.01,"tml_elements":["nVarNumber","nVarValue","nVarDigits"],"nVarDigits":5,"nVarNumber":2}]}],"eExpPurpose":"Principal objective of the work","Property":[{"CombinedUncertainty":{"nCombUncertAssessNum":1,"sCombUncertEvaluator":"Data file compiler","tml_elements":["nCombUncertAssessNum","sCombUncertEvaluator","eCombUncertEvalMethod","nCombUncertLevOfConfid"],"nCombUncertLevOfConfid":95,"eCombUncertEvalMethod":"Propagation of evaluated standard uncertainties"},"nPropNumber":1,"PropPhaseID":{"ePropPhase":"Liquid","tml_elements":["ePropPhase"]},"Property-MethodID":{"tml_elements":["PropertyGroup"],"PropertyGroup":{"tml_elements":["VaporPBoilingTAzeotropTandP"],"VaporPBoilingTAzeotropTandP":{"ePropName":"Vapor or sublimation pressure, kPa","eMethodName":"Ebulliometric method (Recirculating still)","tml_elements":["ePropName","eMethodName"]}}},"tml_elements":["nPropNumber","Property-MethodID","PropPhaseID","ePresentation","CombinedUncertainty"],"ePresentation":"Direct value, X"}]},{"PhaseID":[{"ePhase":"Gas","tml_elements":["ePhase"]},{"ePhase":"Liquid","tml_elements":["ePhase"]}],"tml_elements":["nPureOrMixtureDataNumber","Component","eExpPurpose","sCompiler","sContributor","dateDateAdded","Property","PhaseID","Variable","NumValues"],"Component":[{"nSampleNm":1,"RegNum":{"nOrgNum":2,"tml_elements":["nOrgNum"]},"tml_elements":["RegNum","nSampleNm"]},{"tml_elements":["RegNum","nSampleNm"],"nSampleNm":1,"RegNum":{"tml_elements":["nOrgNum"],"nOrgNum":1}}],"Variable":[{"nVarNumber":1,"VarPhaseID":{"tml_elements":["eVarPhase"],"eVarPhase":"Liquid"},"tml_elements":["nVarNumber","VariableID","VarPhaseID"],"VariableID":{"RegNum":{"nOrgNum":1,"tml_elements":["nOrgNum"]},"VariableType":{"eComponentComposition":"Mole fraction","tml_elements":["eComponentComposition"]},"tml_elements":["VariableType","RegNum"]}},{"nVarNumber":2,"VarPhaseID":{"eVarPhase":"Liquid","tml_elements":["eVarPhase"]},"tml_elements":["nVarNumber","VariableID","VarPhaseID"],"VariableID":{"VariableType":{"eTemperature":"Temperature, K","tml_elements":["eTemperature"]},"tml_elements":["VariableType"]}}],"sContributor":"TRC","Property":[{"Property-MethodID":{"tml_elements":["PropertyGroup","RegNum"],"PropertyGroup":{"CompositionAtPhaseEquilibrium":{"sMethodName":"OTHER","ePropName":"Mole fraction","tml_elements":["ePropName","sMethodName"]},"tml_elements":["CompositionAtPhaseEquilibrium"]},"RegNum":{"nOrgNum":1,"tml_elements":["nOrgNum"]}},"PropPhaseID":{"tml_elements":["ePropPhase"],"ePropPhase":"Gas"},"nPropNumber":1,"ePresentation":"Direct value, X","tml_elements":["nPropNumber","Property-MethodID","PropPhaseID","ePresentation","CombinedUncertainty"],"CombinedUncertainty":{"sCombUncertEvaluator":"Data file compiler","nCombUncertAssessNum":1,"eCombUncertEvalMethod":"Propagation of evaluated standard uncertainties","nCombUncertLevOfConfid":95,"tml_elements":["nCombUncertAssessNum","sCombUncertEvaluator","eCombUncertEvalMethod","nCombUncertLevOfConfid"]}}],"eExpPurpose":"Principal objective of the work","sCompiler":"JOK","nPureOrMixtureDataNumber":6,"dateDateAdded":"10/28/2004","NumValues":[{"VariableValue":[{"nVarNumber":1,"nVarDigits":4,"tml_elements":["nVarNumber","nVarValue","nVarDigits"],"nVarValue":0.001955},{"nVarNumber":2,"tml_elements":["nVarNumber","nVarValue","nVarDigits"],"nVarDigits":5,"nVarValue":336.89}],"tml_elements":["VariableValue","PropertyValue"],"PropertyValue":[{"nPropDigits":3,"nPropNumber":1,"tml_elements":["nPropNumber","nPropValue","nPropDigits","CombinedUncertainty"],"CombinedUncertainty":{"nCombUncertAssessNum":1,"tml_elements":["nCombUncertAssessNum","nCombExpandUncertValue"],"nCombExpandUncertValue":2e-06},"nPropValue":0.000345}]},{"VariableValue":[{"tml_elements":["nVarNumber","nVarValue","nVarDigits"],"nVarDigits":4,"nVarNumber":1,"nVarValue":0.003911},{"nVarValue":336.92,"tml_elements":["nVarNumber","nVarValue","nVarDigits"],"nVarDigits":5,"nVarNumber":2}],"tml_elements":["VariableValue","PropertyValue"],"PropertyValue":[{"nPropValue":0.000708,"CombinedUncertainty":{"nCombUncertAssessNum":1,"tml_elements":["nCombUncertAssessNum","nCombExpandUncertValue"],"nCombExpandUncertValue":3.8e-05},"tml_elements":["nPropNumber","nPropValue","nPropDigits","CombinedUncertainty"],"nPropNumber":1,"nPropDigits":3}]},{"tml_elements":["VariableValue","PropertyValue"],"PropertyValue":[{"nPropValue":0.001036,"CombinedUncertainty":{"tml_elements":["nCombUncertAssessNum","nCombExpandUncertValue"],"nCombExpandUncertValue":1.5e-05,"nCombUncertAssessNum":1},"nPropDigits":4,"nPropNumber":1,"tml_elements":["nPropNumber","nPropValue","nPropDigits","CombinedUncertainty"]}],"VariableValue":[{"nVarNumber":1,"nVarDigits":4,"tml_elements":["nVarNumber","nVarValue","nVarDigits"],"nVarValue":0.006144},{"nVarValue":337,"nVarNumber":2,"tml_elements":["nVarNumber","nVarValue","nVarDigits"],"nVarDigits":5}]},{"VariableValue":[{"nVarNumber":1,"tml_elements":["nVarNumber","nVarValue","nVarDigits"],"nVarDigits":4,"nVarValue":0.008112},{"tml_elements":["nVarNumber","nVarValue","nVarDigits"],"nVarDigits":5,"nVarNumber":2,"nVarValue":337.01}],"tml_elements":["VariableValue","PropertyValue"],"PropertyValue":[{"CombinedUncertainty":{"nCombUncertAssessNum":1,"nCombExpandUncertValue":5e-06,"tml_elements":["nCombUncertAssessNum","nCombExpandUncertValue"]},"nPropValue":0.00137,"tml_elements":["nPropNumber","nPropValue","nPropDigits","CombinedUncertainty"],"nPropNumber":1,"nPropDigits":4}]}]},{"NumValues":[{"tml_elements":["VariableValue","PropertyValue"],"PropertyValue":[{"nPropNumber":1,"nPropDigits":4,"tml_elements":["nPropNumber","nPropValue","nPropDigits","CombinedUncertainty"],"CombinedUncertainty":{"nCombExpandUncertValue":0.18,"tml_elements":["nCombUncertAssessNum","nCombExpandUncertValue"],"nCombUncertAssessNum":1},"nPropValue":98.39}],"VariableValue":[{"nVarValue":0.002283,"nVarDigits":4,"tml_elements":["nVarNumber","nVarValue","nVarDigits"],"nVarNumber":1},{"tml_elements":["nVarNumber","nVarValue","nVarDigits"],"nVarDigits":5,"nVarNumber":2,"nVarValue":350.69}]},{"tml_elements":["VariableValue","PropertyValue"],"PropertyValue":[{"nPropValue":98.34,"CombinedUncertainty":{"tml_elements":["nCombUncertAssessNum","nCombExpandUncertValue"],"nCombExpandUncertValue":0.18,"nCombUncertAssessNum":1},"tml_elements":["nPropNumber","nPropValue","nPropDigits","CombinedUncertainty"],"nPropDigits":4,"nPropNumber":1}],"VariableValue":[{"nVarValue":0.00447,"nVarNumber":1,"nVarDigits":4,"tml_elements":["nVarNumber","nVarValue","nVarDigits"]},{"nVarNumber":2,"tml_elements":["nVarNumber","nVarValue","nVarDigits"],"nVarDigits":5,"nVarValue":350.71}]},{"VariableValue":[{"tml_elements":["nVarNumber","nVarValue","nVarDigits"],"nVarDigits":4,"nVarNumber":1,"nVarValue":0.006396},{"nVarNumber":2,"nVarDigits":5,"tml_elements":["nVarNumber","nVarValue","nVarDigits"],"nVarValue":350.71}],"tml_elements":["VariableValue","PropertyValue"],"PropertyValue":[{"nPropValue":98.21,"CombinedUncertainty":{"tml_elements":["nCombUncertAssessNum","nCombExpandUncertValue"],"nCombExpandUncertValue":0.16,"nCombUncertAssessNum":1},"nPropDigits":4,"nPropNumber":1,"tml_elements":["nPropNumber","nPropValue","nPropDigits","CombinedUncertainty"]}]},{"PropertyValue":[{"tml_elements":["nPropNumber","nPropValue","nPropDigits","CombinedUncertainty"],"nPropDigits":4,"nPropNumber":1,"nPropValue":98.08,"CombinedUncertainty":{"nCombExpandUncertValue":0.16,"tml_elements":["nCombUncertAssessNum","nCombExpandUncertValue"],"nCombUncertAssessNum":1}}],"tml_elements":["VariableValue","PropertyValue"],"VariableValue":[{"nVarValue":0.008492,"nVarDigits":4,"tml_elements":["nVarNumber","nVarValue","nVarDigits"],"nVarNumber":1},{"nVarDigits":5,"tml_elements":["nVarNumber","nVarValue","nVarDigits"],"nVarNumber":2,"nVarValue":350.72}]}],"dateDateAdded":"10/28/2004","nPureOrMixtureDataNumber":7,"sCompiler":"JOK","Property":[{"tml_elements":["nPropNumber","Property-MethodID","PropPhaseID","ePresentation","CombinedUncertainty"],"ePresentation":"Direct value, X","nPropNumber":1,"PropPhaseID":{"tml_elements":["ePropPhase"],"ePropPhase":"Liquid"},"Property-MethodID":{"PropertyGroup":{"VaporPBoilingTAzeotropTandP":{"tml_elements":["ePropName","eMethodName"],"ePropName":"Vapor or sublimation pressure, kPa","eMethodName":"Ebulliometric method (Recirculating still)"},"tml_elements":["VaporPBoilingTAzeotropTandP"]},"tml_elements":["PropertyGroup"]},"CombinedUncertainty":{"nCombUncertAssessNum":1,"sCombUncertEvaluator":"Data file compiler","tml_elements":["nCombUncertAssessNum","sCombUncertEvaluator","eCombUncertEvalMethod","nCombUncertLevOfConfid"],"nCombUncertLevOfConfid":95,"eCombUncertEvalMethod":"Propagation of evaluated standard uncertainties"}}],"eExpPurpose":"Principal objective of the work","sContributor":"TRC","Variable":[{"nVarNumber":1,"VarPhaseID":{"eVarPhase":"Liquid","tml_elements":["eVarPhase"]},"tml_elements":["nVarNumber","VariableID","VarPhaseID"],"VariableID":{"RegNum":{"tml_elements":["nOrgNum"],"nOrgNum":1},"tml_elements":["VariableType","RegNum"],"VariableType":{"eComponentComposition":"Mole fraction","tml_elements":["eComponentComposition"]}}},{"tml_elements":["nVarNumber","VariableID","VarPhaseID"],"VarPhaseID":{"eVarPhase":"Liquid","tml_elements":["eVarPhase"]},"nVarNumber":2,"VariableID":{"VariableType":{"eTemperature":"Temperature, K","tml_elements":["eTemperature"]},"tml_elements":["VariableType"]}}],"Component":[{"RegNum":{"nOrgNum":3,"tml_elements":["nOrgNum"]},"nSampleNm":1,"tml_elements":["RegNum","nSampleNm"]},{"tml_elements":["RegNum","nSampleNm"],"RegNum":{"tml_elements":["nOrgNum"],"nOrgNum":1},"nSampleNm":1}],"tml_elements":["nPureOrMixtureDataNumber","Component","eExpPurpose","sCompiler","sContributor","dateDateAdded","Property","PhaseID","Variable","NumValues"],"PhaseID":[{"ePhase":"Liquid","tml_elements":["ePhase"]},{"tml_elements":["ePhase"],"ePhase":"Gas"}]},{"sContributor":"TRC","tml_elements":["nPureOrMixtureDataNumber","Component","eExpPurpose","sCompiler","sContributor","dateDateAdded","Property","PhaseID","Variable","NumValues"],"PhaseID":[{"tml_elements":["ePhase"],"ePhase":"Gas"},{"ePhase":"Liquid","tml_elements":["ePhase"]}],"NumValues":[{"VariableValue":[{"nVarNumber":1,"tml_elements":["nVarNumber","nVarValue","nVarDigits"],"nVarDigits":4,"nVarValue":0.002283},{"nVarValue":350.69,"nVarNumber":2,"nVarDigits":5,"tml_elements":["nVarNumber","nVarValue","nVarDigits"]}],"tml_elements":["VariableValue","PropertyValue"],"PropertyValue":[{"tml_elements":["nPropNumber","nPropValue","nPropDigits","CombinedUncertainty"],"nPropNumber":1,"nPropDigits":3,"CombinedUncertainty":{"nCombUncertAssessNum":1,"tml_elements":["nCombUncertAssessNum","nCombExpandUncertValue"],"nCombExpandUncertValue":2e-06},"nPropValue":0.000378}]},{"PropertyValue":[{"tml_elements":["nPropNumber","nPropValue","nPropDigits","CombinedUncertainty"],"nPropDigits":3,"nPropNumber":1,"CombinedUncertainty":{"nCombExpandUncertValue":5.3e-05,"tml_elements":["nCombUncertAssessNum","nCombExpandUncertValue"],"nCombUncertAssessNum":1},"nPropValue":0.000741}],"tml_elements":["VariableValue","PropertyValue"],"VariableValue":[{"nVarDigits":4,"tml_elements":["nVarNumber","nVarValue","nVarDigits"],"nVarNumber":1,"nVarValue":0.00447},{"nVarNumber":2,"tml_elements":["nVarNumber","nVarValue","nVarDigits"],"nVarDigits":5,"nVarValue":350.71}]},{"PropertyValue":[{"nPropNumber":1,"nPropDigits":4,"tml_elements":["nPropNumber","nPropValue","nPropDigits","CombinedUncertainty"],"CombinedUncertainty":{"nCombExpandUncertValue":7.2e-05,"tml_elements":["nCombUncertAssessNum","nCombExpandUncertValue"],"nCombUncertAssessNum":1},"nPropValue":0.001014}],"tml_elements":["VariableValue","PropertyValue"],"VariableValue":[{"tml_elements":["nVarNumber","nVarValue","nVarDigits"],"nVarDigits":4,"nVarNumber":1,"nVarValue":0.006396},{"nVarValue":350.71,"nVarDigits":5,"tml_elements":["nVarNumber","nVarValue","nVarDigits"],"nVarNumber":2}]},{"VariableValue":[{"nVarNumber":1,"nVarDigits":4,"tml_elements":["nVarNumber","nVarValue","nVarDigits"],"nVarValue":0.008492},{"nVarValue":350.72,"tml_elements":["nVarNumber","nVarValue","nVarDigits"],"nVarDigits":5,"nVarNumber":2}],"PropertyValue":[{"nPropNumber":1,"nPropDigits":4,"tml_elements":["nPropNumber","nPropValue","nPropDigits","CombinedUncertainty"],"CombinedUncertainty":{"nCombExpandUncertValue":7.2e-05,"tml_elements":["nCombUncertAssessNum","nCombExpandUncertValue"],"nCombUncertAssessNum":1},"nPropValue":0.001347}],"tml_elements":["VariableValue","PropertyValue"]}],"dateDateAdded":"10/28/2004","nPureOrMixtureDataNumber":8,"sCompiler":"JOK","eExpPurpose":"Principal objective of the work","Property":[{"ePresentation":"Direct value, X","tml_elements":["nPropNumber","Property-MethodID","PropPhaseID","ePresentation","CombinedUncertainty"],"PropPhaseID":{"tml_elements":["ePropPhase"],"ePropPhase":"Gas"},"Property-MethodID":{"RegNum":{"nOrgNum":1,"tml_elements":["nOrgNum"]},"PropertyGroup":{"CompositionAtPhaseEquilibrium":{"tml_elements":["ePropName","sMethodName"],"sMethodName":"OTHER","ePropName":"Mole fraction"},"tml_elements":["CompositionAtPhaseEquilibrium"]},"tml_elements":["PropertyGroup","RegNum"]},"nPropNumber":1,"CombinedUncertainty":{"sCombUncertEvaluator":"Data file compiler","nCombUncertAssessNum":1,"nCombUncertLevOfConfid":95,"eCombUncertEvalMethod":"Propagation of evaluated standard uncertainties","tml_elements":["nCombUncertAssessNum","sCombUncertEvaluator","eCombUncertEvalMethod","nCombUncertLevOfConfid"]}}],"Variable":[{"VarPhaseID":{"tml_elements":["eVarPhase"],"eVarPhase":"Liquid"},"nVarNumber":1,"tml_elements":["nVarNumber","VariableID","VarPhaseID"],"VariableID":{"RegNum":{"tml_elements":["nOrgNum"],"nOrgNum":1},"VariableType":{"tml_elements":["eComponentComposition"],"eComponentComposition":"Mole fraction"},"tml_elements":["VariableType","RegNum"]}},{"tml_elements":["nVarNumber","VariableID","VarPhaseID"],"nVarNumber":2,"VarPhaseID":{"eVarPhase":"Liquid","tml_elements":["eVarPhase"]},"VariableID":{"VariableType":{"eTemperature":"Temperature, K","tml_elements":["eTemperature"]},"tml_elements":["VariableType"]}}],"Component":[{"tml_elements":["RegNum","nSampleNm"],"RegNum":{"nOrgNum":3,"tml_elements":["nOrgNum"]},"nSampleNm":1},{"tml_elements":["RegNum","nSampleNm"],"nSampleNm":1,"RegNum":{"nOrgNum":1,"tml_elements":["nOrgNum"]}}]}],"THERMOML_MD5_CHECKSUM":"296852fd93de1412bb07bf741613f591","Compound":[{"sFormulaMolec":"C10H14","sStandardInChIKey":"SQNZJJAZBFDUTD-UHFFFAOYSA-N","tml_elements":["RegNum","sStandardInChI","sStandardInChIKey","sCommonName","sFormulaMolec","Sample"],"sCommonName":["1,2,4,5-tetramethylbenzene","benzene, 1,2,4,5-tetramethyl-","durene"],"Sample":[{"eSource":"Commercial source","nSampleNm":1,"purity":[{"eAnalMeth":["Stated by supplier"],"nPurityMol":98,"tml_elements":["nStep","nPurityMol","nPurityMolDigits","eAnalMeth"],"nPurityMolDigits":2,"nStep":1},{"nStep":2,"tml_elements":["nStep","ePurifMethod"],"ePurifMethod":["None used"]}],"tml_elements":["nSampleNm","eSource","purity"]}],"RegNum":{"tml_elements":["nOrgNum"],"nOrgNum":1},"sStandardInChI":"InChI=1S/C10H14/c1-7-5-9(3)10(4)6-8(7)2/h5-6H,1-4H3"},{"sFormulaMolec":"CH4O","Sample":[{"tml_elements":["nSampleNm","eSource","purity"],"purity":[{"nStep":1,"tml_elements":["nStep","ePurifMethod"],"ePurifMethod":["None used"]},{"nPurityMolDigits":3,"nStep":2,"tml_elements":["nStep","nPurityMol","nPurityMolDigits","eAnalMeth"],"nPurityMol":99.9,"eAnalMeth":["Gas chromatography"]}],"nSampleNm":1,"eSource":"Commercial source"}],"sCommonName":["methanol","methyl alcohol"],"tml_elements":["RegNum","sStandardInChI","sStandardInChIKey","sCommonName","sFormulaMolec","Sample"],"sStandardInChI":"InChI=1S/CH4O/c1-2/h2H,1H3","RegNum":{"tml_elements":["nOrgNum"],"nOrgNum":2},"sStandardInChIKey":"OKKJLVBELUTLKV-UHFFFAOYSA-N"},{"sFormulaMolec":"C2H6O","tml_elements":["RegNum","sStandardInChI","sStandardInChIKey","sCommonName","sFormulaMolec","Sample"],"sCommonName":["ethanol","ethyl alcohol"],"Sample":[{"purity":[{"ePurifMethod":["None used"],"tml_elements":["nStep","ePurifMethod"],"nStep":1},{"eAnalMeth":["Gas chromatography"],"tml_elements":["nStep","nPurityMol","nPurityMolDigits","eAnalMeth"],"nPurityMol":99.9,"nStep":2,"nPurityMolDigits":3}],"tml_elements":["nSampleNm","eSource","purity"],"nSampleNm":1,"eSource":"Commercial source"}],"sStandardInChIKey":"LFQSCWFLJHTTHZ-UHFFFAOYSA-N","RegNum":{"tml_elements":["nOrgNum"],"nOrgNum":3},"sStandardInChI":"InChI=1S/C2H6O/c1-2-3/h3H,2H2,1H3"}]}