{"Version":{"nVersionMinor":0,"nVersionMajor":2,"tml_elements":["nVersionMajor","nVersionMinor"]},"tml_elements":["Version","Citation","Compound","PureOrMixtureData"],"PureOrMixtureData":[{"Component":[{"tml_elements":["RegNum","nSampleNm"],"RegNum":{"nOrgNum":1,"tml_elements":["nOrgNum"]},"nSampleNm":1}],"tml_elements":["nPureOrMixtureDataNumber","Component","eExpPurpose","sCompiler","sContributor","dateDateAdded","Property","PhaseID","Variable","NumValues"],"PhaseID":[{"ePhase":"Liquid","tml_elements":["ePhase"]},{"ePhase":"Gas","tml_elements":["ePhase"]}],"sContributor":"TRC","Variable":[{"VariableID":{"VariableType":{"tml_elements":["eTemperature"],"eTemperature":"Temperature, K"},"tml_elements":["VariableType"]},"tml_elements":["nVarNumber","VariableID","VarPhaseID"],"VarPhaseID":{"eVarPhase":"Liquid","tml_elements":["eVarPhase"]},"nVarNumber":1}],"Property":[{"nPropNumber":1,"PropPhaseID":{"ePropPhase":"Liquid","tml_elements":["ePropPhase"]},"Property-MethodID":{"tml_elements":["PropertyGroup"],"PropertyGroup":{"VaporPBoilingTAzeotropTandP":{"tml_elements":["ePropName","eMethodName"],"eMethodName":"Ebulliometric method (Recirculating still)","ePropName":"Vapor or sublimation pressure, kPa"},"tml_elements":["VaporPBoilingTAzeotropTandP"]}},"tml_elements":["nPropNumber","Property-MethodID","PropPhaseID","ePresentation","CombinedUncertainty"],"ePresentation":"Direct value, X","CombinedUncertainty":{"nCombUncertLevOfConfid":95,"eCombUncertEvalMethod":"Propagation of evaluated standard uncertainties","tml_elements":["nCombUncertAssessNum","sCombUncertEvaluator","eCombUncertEvalMethod","nCombUncertLevOfConfid"],"sCombUncertEvaluator":"Data file compiler","nCombUncertAssessNum":1}}],"eExpPurpose":"Principal objective of the work","NumValues":[{"VariableValue":[{"nVarNumber":1,"nVarDigits":6,"tml_elements":["nVarNumber","nVarValue","nVarDigits"],"nVarValue":277.922}],"tml_elements":["VariableValue","PropertyValue"],"PropertyValue":[{"nPropNumber":1,"nPropDigits":4,"tml_elements":["nPropNumber","nPropValue","nPropDigits","CombinedUncertainty"],"nPropValue":4.323,"CombinedUncertainty":{"nCombUncertAssessNum":1,"tml_elements":["nCombUncertAssessNum","nCombExpandUncertValue"],"nCombExpandUncertValue":0.011}}]},{"VariableValue":[{"nVarNumber":1,"nVarDigits":6,"tml_elements":["nVarNumber","nVarValue","nVarDigits"],"nVarValue":278.625}],"PropertyValue":[{"nPropValue":4.49,"CombinedUncertainty":{"nCombUncertAssessNum":1,"tml_elements":["nCombUncertAssessNum","nCombExpandUncertValue"],"nCombExpandUncertValue":0.01},"nPropDigits":3,"nPropNumber":1,"tml_elements":["nPropNumber","nPropValue","nPropDigits","CombinedUncertainty"]}],"tml_elements":["VariableValue","PropertyValue"]},{"PropertyValue":[{"nPropValue":5.247,"CombinedUncertainty":{"nCombUncertAssessNum":1,"nCombExpandUncertValue":0.012,"tml_elements":["nCombUncertAssessNum","nCombExpandUncertValue"]},"nPropDigits":4,"nPropNumber":1,"tml_elements":["nPropNumber","nPropValue","nPropDigits","CombinedUncertainty"]}],"tml_elements":["VariableValue","PropertyValue"],"VariableValue":[{"nVarValue":281.567,"nVarDigits":6,"tml_elements":["nVarNumber","nVarValue","nVarDigits"],"nVarNumber":1}]},{"tml_elements":["VariableValue","PropertyValue"],"PropertyValue":[{"CombinedUncertainty":{"tml_elements":["nCombUncertAssessNum","nCombExpandUncertValue"],"nCombExpandUncertValue":0.012,"nCombUncertAssessNum":1},"nPropValue":6.385,"tml_elements":["nPropNumber","nPropValue","nPropDigits","CombinedUncertainty"],"nPropNumber":1,"nPropDigits":4}],"VariableValue":[{"tml_elements":["nVarNumber","nVarValue","nVarDigits"],"nVarDigits":6,"nVarNumber":1,"nVarValue":285.376}]},{"VariableValue":[{"nVarValue":287.667,"nVarNumber":1,"nVarDigits":6,"tml_elements":["nVarNumber","nVarValue","nVarDigits"]}],"tml_elements":["VariableValue","PropertyValue"],"PropertyValue":[{"nPropDigits":4,"nPropNumber":1,"tml_elements":["nPropNumber","nPropValue","nPropDigits","CombinedUncertainty"],"CombinedUncertainty":{"nCombUncertAssessNum":1,"nCombExpandUncertValue":0.013,"tml_elements":["nCombUncertAssessNum","nCombExpandUncertValue"]},"nPropValue":7.165}]},{"VariableValue":[{"nVarNumber":1,"nVarDigits":6,"tml_elements":["nVarNumber","nVarValue","nVarDigits"],"nVarValue":290.647}],"tml_elements":["VariableValue","PropertyValue"],"PropertyValue":[{"CombinedUncertainty":{"tml_elements":["nCombUncertAssessNum","nCombExpandUncertValue"],"nCombExpandUncertValue":0.013,"nCombUncertAssessNum":1},"nPropValue":8.296,"tml_elements":["nPropNumber","nPropValue","nPropDigits","CombinedUncertainty"],"nPropNumber":1,"nPropDigits":4}]},{"VariableValue":[{"nVarValue":292.746,"nVarNumber":1,"tml_elements":["nVarNumber","nVarValue","nVarDigits"],"nVarDigits":6}],"PropertyValue":[{"nPropDigits":4,"nPropNumber":1,"tml_elements":["nPropNumber","nPropValue","nPropDigits","CombinedUncertainty"],"CombinedUncertainty":{"nCombUncertAssessNum":1,"tml_elements":["nCombUncertAssessNum","nCombExpandUncertValue"],"nCombExpandUncertValue":0.014},"nPropValue":9.182}],"tml_elements":["VariableValue","PropertyValue"]},{"PropertyValue":[{"nPropDigits":5,"nPropNumber":1,"tml_elements":["nPropNumber","nPropValue","nPropDigits","CombinedUncertainty"],"CombinedUncertainty":{"tml_elements":["nCombUncertAssessNum","nCombExpandUncertValue"],"nCombExpandUncertValue":0.015,"nCombUncertAssessNum":1},"nPropValue":10.604}],"tml_elements":["VariableValue","PropertyValue"],"VariableValue":[{"nVarNumber":1,"tml_elements":["nVarNumber","nVarValue","nVarDigits"],"nVarDigits":6,"nVarValue":295.784}]},{"PropertyValue":[{"tml_elements":["nPropNumber","nPropValue","nPropDigits","CombinedUncertainty"],"nPropNumber":1,"nPropDigits":5,"CombinedUncertainty":{"nCombUncertAssessNum":1,"nCombExpandUncertValue":0.016,"tml_elements":["nCombUncertAssessNum","nCombExpandUncertValue"]},"nPropValue":13.366}],"tml_elements":["VariableValue","PropertyValue"],"VariableValue":[{"tml_elements":["nVarNumber","nVarValue","nVarDigits"],"nVarDigits":6,"nVarNumber":1,"nVarValue":300.824}]},{"tml_elements":["VariableValue","PropertyValue"],"PropertyValue":[{"nPropNumber":1,"nPropDigits":5,"tml_elements":["nPropNumber","nPropValue","nPropDigits","CombinedUncertainty"],"CombinedUncertainty":{"nCombUncertAssessNum":1,"tml_elements":["nCombUncertAssessNum","nCombExpandUncertValue"],"nCombExpandUncertValue":0.018},"nPropValue":15.271}],"VariableValue":[{"nVarNumber":1,"tml_elements":["nVarNumber","nVarValue","nVarDigits"],"nVarDigits":6,"nVarValue":303.811}]},{"tml_elements":["VariableValue","PropertyValue"],"PropertyValue":[{"nPropNumber":1,"nPropDigits":5,"tml_elements":["nPropNumber","nPropValue","nPropDigits","CombinedUncertainty"],"nPropValue":19.639,"CombinedUncertainty":{"tml_elements":["nCombUncertAssessNum","nCombExpandUncertValue"],"nCombExpandUncertValue":0.021,"nCombUncertAssessNum":1}}],"VariableValue":[{"tml_elements":["nVarNumber","nVarValue","nVarDigits"],"nVarDigits":6,"nVarNumber":1,"nVarValue":309.636}]},{"VariableValue":[{"nVarValue":315.433,"nVarDigits":6,"tml_elements":["nVarNumber","nVarValue","nVarDigits"],"nVarNumber":1}],"tml_elements":["VariableValue","PropertyValue"],"PropertyValue":[{"nPropValue":24.972,"CombinedUncertainty":{"nCombUncertAssessNum":1,"nCombExpandUncertValue":0.024,"tml_elements":["nCombUncertAssessNum","nCombExpandUncertValue"]},"tml_elements":["nPropNumber","nPropValue","nPropDigits","CombinedUncertainty"],"nPropDigits":5,"nPropNumber":1}]},{"tml_elements":["VariableValue","PropertyValue"],"PropertyValue":[{"nPropDigits":5,"nPropNumber":1,"tml_elements":["nPropNumber","nPropValue","nPropDigits","CombinedUncertainty"],"nPropValue":31.311,"CombinedUncertainty":{"nCombUncertAssessNum":1,"tml_elements":["nCombUncertAssessNum","nCombExpandUncertValue"],"nCombExpandUncertValue":0.027}}],"VariableValue":[{"nVarValue":321.118,"tml_elements":["nVarNumber","nVarValue","nVarDigits"],"nVarDigits":6,"nVarNumber":1}]},{"PropertyValue":[{"tml_elements":["nPropNumber","nPropValue","nPropDigits","CombinedUncertainty"],"nPropDigits":5,"nPropNumber":1,"CombinedUncertainty":{"tml_elements":["nCombUncertAssessNum","nCombExpandUncertValue"],"nCombExpandUncertValue":0.032,"nCombUncertAssessNum":1},"nPropValue":36.387}],"tml_elements":["VariableValue","PropertyValue"],"VariableValue":[{"nVarNumber":1,"tml_elements":["nVarNumber","nVarValue","nVarDigits"],"nVarDigits":6,"nVarValue":325.022}]},{"tml_elements":["VariableValue","PropertyValue"],"PropertyValue":[{"CombinedUncertainty":{"tml_elements":["nCombUncertAssessNum","nCombExpandUncertValue"],"nCombExpandUncertValue":0.036,"nCombUncertAssessNum":1},"nPropValue":45.907,"tml_elements":["nPropNumber","nPropValue","nPropDigits","CombinedUncertainty"],"nPropDigits":5,"nPropNumber":1}],"VariableValue":[{"nVarNumber":1,"tml_elements":["nVarNumber","nVarValue","nVarDigits"],"nVarDigits":6,"nVarValue":331.275}]},{"tml_elements":["VariableValue","PropertyValue"],"PropertyValue":[{"nPropValue":55.169,"CombinedUncertainty":{"nCombExpandUncertValue":0.042,"tml_elements":["nCombUncertAssessNum","nCombExpandUncertValue"],"nCombUncertAssessNum":1},"nPropDigits":5,"nPropNumber":1,"tml_elements":["nPropNumber","nPropValue","nPropDigits","CombinedUncertainty"]}],"VariableValue":[{"nVarValue":336.413,"tml_elements":["nVarNumber","nVarValue","nVarDigits"],"nVarDigits":6,"nVarNumber":1}]},{"tml_elements":["VariableValue","PropertyValue"],"PropertyValue":[{"nPropNumber":1,"nPropDigits":5,"tml_elements":["nPropNumber","nPropValue","nPropDigits","CombinedUncertainty"],"CombinedUncertainty":{"nCombUncertAssessNum":1,"tml_elements":["nCombUncertAssessNum","nCombExpandUncertValue"],"nCombExpandUncertValue":0.048},"nPropValue":65.072}],"VariableValue":[{"nVarValue":341.179,"nVarNumber":1,"tml_elements":["nVarNumber","nVarValue","nVarDigits"],"nVarDigits":6}]},{"tml_elements":["VariableValue","PropertyValue"],"PropertyValue":[{"tml_elements":["nPropNumber","nPropValue","nPropDigits","CombinedUncertainty"],"nPropDigits":4,"nPropNumber":1,"nPropValue":75.44,"CombinedUncertainty":{"nCombUncertAssessNum":1,"tml_elements":["nCombUncertAssessNum","nCombExpandUncertValue"],"nCombExpandUncertValue":0.05}}],"VariableValue":[{"nVarNumber":1,"tml_elements":["nVarNumber","nVarValue","nVarDigits"],"nVarDigits":6,"nVarValue":345.575}]},{"tml_elements":["VariableValue","PropertyValue"],"PropertyValue":[{"tml_elements":["nPropNumber","nPropValue","nPropDigits","CombinedUncertainty"],"nPropDigits":5,"nPropNumber":1,"CombinedUncertainty":{"nCombUncertAssessNum":1,"nCombExpandUncertValue":0.059,"tml_elements":["nCombUncertAssessNum","nCombExpandUncertValue"]},"nPropValue":85.311}],"VariableValue":[{"nVarNumber":1,"tml_elements":["nVarNumber","nVarValue","nVarDigits"],"nVarDigits":6,"nVarValue":349.328}]},{"tml_elements":["VariableValue","PropertyValue"],"PropertyValue":[{"tml_elements":["nPropNumber","nPropValue","nPropDigits","CombinedUncertainty"],"nPropDigits":5,"nPropNumber":1,"nPropValue":95.589,"CombinedUncertainty":{"tml_elements":["nCombUncertAssessNum","nCombExpandUncertValue"],"nCombExpandUncertValue":0.063,"nCombUncertAssessNum":1}}],"VariableValue":[{"nVarDigits":6,"tml_elements":["nVarNumber","nVarValue","nVarDigits"],"nVarNumber":1,"nVarValue":352.879}]},{"VariableValue":[{"nVarValue":354.55,"nVarDigits":5,"tml_elements":["nVarNumber","nVarValue","nVarDigits"],"nVarNumber":1}],"PropertyValue":[{"tml_elements":["nPropNumber","nPropValue","nPropDigits","CombinedUncertainty"],"nPropNumber":1,"nPropDigits":6,"nPropValue":100.745,"CombinedUncertainty":{"tml_elements":["nCombUncertAssessNum","nCombExpandUncertValue"],"nCombExpandUncertValue":0.068,"nCombUncertAssessNum":1}}],"tml_elements":["VariableValue","PropertyValue"]},{"tml_elements":["VariableValue","PropertyValue"],"PropertyValue":[{"tml_elements":["nPropNumber","nPropValue","nPropDigits","CombinedUncertainty"],"nPropDigits":5,"nPropNumber":1,"nPropValue":101.12,"CombinedUncertainty":{"nCombExpandUncertValue":0.07,"tml_elements":["nCombUncertAssessNum","nCombExpandUncertValue"],"nCombUncertAssessNum":1}}],"VariableValue":[{"nVarNumber":1,"tml_elements":["nVarNumber","nVarValue","nVarDigits"],"nVarDigits":6,"nVarValue":354.665}]},{"VariableValue":[{"nVarNumber":1,"nVarDigits":6,"tml_elements":["nVarNumber","nVarValue","nVarDigits"],"nVarValue":357.556}],"PropertyValue":[{"nPropNumber":1,"nPropDigits":6,"tml_elements":["nPropNumber","nPropValue","nPropDigits","CombinedUncertainty"],"CombinedUncertainty":{"nCombUncertAssessNum":1,"nCombExpandUncertValue":0.073,"tml_elements":["nCombUncertAssessNum","nCombExpandUncertValue"]},"nPropValue":110.614}],"tml_elements":["VariableValue","PropertyValue"]},{"VariableValue":[{"nVarValue":360.942,"nVarNumber":1,"nVarDigits":6,"tml_elements":["nVarNumber","nVarValue","nVarDigits"]}],"PropertyValue":[{"nPropValue":122.631,"CombinedUncertainty":{"tml_elements":["nCombUncertAssessNum","nCombExpandUncertValue"],"nCombExpandUncertValue":0.079,"nCombUncertAssessNum":1},"nPropDigits":6,"nPropNumber":1,"tml_elements":["nPropNumber","nPropValue","nPropDigits","CombinedUncertainty"]}],"tml_elements":["VariableValue","PropertyValue"]},{"tml_elements":["VariableValue","PropertyValue"],"PropertyValue":[{"nPropValue":125.129,"CombinedUncertainty":{"nCombUncertAssessNum":1,"tml_elements":["nCombUncertAssessNum","nCombExpandUncertValue"],"nCombExpandUncertValue":0.079},"nPropNumber":1,"nPropDigits":6,"tml_elements":["nPropNumber","nPropValue","nPropDigits","CombinedUncertainty"]}],"VariableValue":[{"nVarNumber":1,"tml_elements":["nVarNumber","nVarValue","nVarDigits"],"nVarDigits":6,"nVarValue":361.612}]},{"VariableValue":[{"nVarValue":368.966,"tml_elements":["nVarNumber","nVarValue","nVarDigits"],"nVarDigits":6,"nVarNumber":1}],"tml_elements":["VariableValue","PropertyValue"],"PropertyValue":[{"CombinedUncertainty":{"nCombUncertAssessNum":1,"nCombExpandUncertValue":0.089,"tml_elements":["nCombUncertAssessNum","nCombExpandUncertValue"]},"nPropValue":155.329,"tml_elements":["nPropNumber","nPropValue","nPropDigits","CombinedUncertainty"],"nPropDigits":6,"nPropNumber":1}]},{"VariableValue":[{"nVarNumber":1,"tml_elements":["nVarNumber","nVarValue","nVarDigits"],"nVarDigits":6,"nVarValue":371.739}],"PropertyValue":[{"nPropValue":168.122,"CombinedUncertainty":{"nCombUncertAssessNum":1,"tml_elements":["nCombUncertAssessNum","nCombExpandUncertValue"],"nCombExpandUncertValue":0.099},"nPropDigits":6,"nPropNumber":1,"tml_elements":["nPropNumber","nPropValue","nPropDigits","CombinedUncertainty"]}],"tml_elements":["VariableValue","PropertyValue"]},{"VariableValue":[{"nVarValue":373.17,"nVarNumber":1,"nVarDigits":5,"tml_elements":["nVarNumber","nVarValue","nVarDigits"]}],"PropertyValue":[{"nPropDigits":6,"nPropNumber":1,"tml_elements":["nPropNumber","nPropValue","nPropDigits","CombinedUncertainty"],"CombinedUncertainty":{"nCombExpandUncertValue":0.109,"tml_elements":["nCombUncertAssessNum","nCombExpandUncertValue"],"nCombUncertAssessNum":1},"nPropValue":175.036}],"tml_elements":["VariableValue","PropertyValue"]},{"VariableValue":[{"tml_elements":["nVarNumber","nVarValue","nVarDigits"],"nVarDigits":6,"nVarNumber":1,"nVarValue":378.815}],"tml_elements":["VariableValue","PropertyValue"],"PropertyValue":[{"nPropDigits":6,"nPropNumber":1,"tml_elements":["nPropNumber","nPropValue","nPropDigits","CombinedUncertainty"],"nPropValue":204.592,"CombinedUncertainty":{"nCombUncertAssessNum":1,"tml_elements":["nCombUncertAssessNum","nCombExpandUncertValue"],"nCombExpandUncertValue":0.117}}]},{"VariableValue":[{"nVarValue":384.111,"nVarDigits":6,"tml_elements":["nVarNumber","nVarValue","nVarDigits"],"nVarNumber":1}],"tml_elements":["VariableValue","PropertyValue"],"PropertyValue":[{"tml_elements":["nPropNumber","nPropValue","nPropDigits","CombinedUncertainty"],"nPropDigits":6,"nPropNumber":1,"CombinedUncertainty":{"nCombExpandUncertValue":0.139,"tml_elements":["nCombUncertAssessNum","nCombExpandUncertValue"],"nCombUncertAssessNum":1},"nPropValue":235.792}]},{"PropertyValue":[{"tml_elements":["nPropNumber","nPropValue","nPropDigits","CombinedUncertainty"],"nPropDigits":6,"nPropNumber":1,"CombinedUncertainty":{"nCombUncertAssessNum":1,"nCombExpandUncertValue":0.163,"tml_elements":["nCombUncertAssessNum","nCombExpandUncertValue"]},"nPropValue":306.279}],"tml_elements":["VariableValue","PropertyValue"],"VariableValue":[{"nVarDigits":6,"tml_elements":["nVarNumber","nVarValue","nVarDigits"],"nVarNumber":1,"nVarValue":394.294}]},{"VariableValue":[{"tml_elements":["nVarNumber","nVarValue","nVarDigits"],"nVarDigits":6,"nVarNumber":1,"nVarValue":405.236}],"PropertyValue":[{"nPropDigits":4,"nPropNumber":1,"tml_elements":["nPropNumber","nPropValue","nPropDigits","CombinedUncertainty"],"nPropValue":399.5,"CombinedUncertainty":{"nCombUncertAssessNum":1,"nCombExpandUncertValue":0.2,"tml_elements":["nCombUncertAssessNum","nCombExpandUncertValue"]}}],"tml_elements":["VariableValue","PropertyValue"]},{"VariableValue":[{"nVarDigits":6,"tml_elements":["nVarNumber","nVarValue","nVarDigits"],"nVarNumber":1,"nVarValue":415.213}],"PropertyValue":[{"nPropNumber":1,"nPropDigits":6,"tml_elements":["nPropNumber","nPropValue","nPropDigits","CombinedUncertainty"],"CombinedUncertainty":{"nCombUncertAssessNum":1,"nCombExpandUncertValue":0.236,"tml_elements":["nCombUncertAssessNum","nCombExpandUncertValue"]},"nPropValue":502.665}],"tml_elements":["VariableValue","PropertyValue"]},{"tml_elements":["VariableValue","PropertyValue"],"PropertyValue":[{"nPropNumber":1,"nPropDigits":6,"tml_elements":["nPropNumber","nPropValue","nPropDigits","CombinedUncertainty"],"nPropValue":605.601,"CombinedUncertainty":{"nCombUncertAssessNum":1,"tml_elements":["nCombUncertAssessNum","nCombExpandUncertValue"],"nCombExpandUncertValue":0.275}}],"VariableValue":[{"nVarValue":423.683,"nVarDigits":6,"tml_elements":["nVarNumber","nVarValue","nVarDigits"],"nVarNumber":1}]},{"PropertyValue":[{"tml_elements":["nPropNumber","nPropValue","nPropDigits","CombinedUncertainty"],"nPropDigits":6,"nPropNumber":1,"nPropValue":708.993,"CombinedUncertainty":{"tml_elements":["nCombUncertAssessNum","nCombExpandUncertValue"],"nCombExpandUncertValue":0.311,"nCombUncertAssessNum":1}}],"tml_elements":["VariableValue","PropertyValue"],"VariableValue":[{"nVarValue":431.124,"nVarNumber":1,"tml_elements":["nVarNumber","nVarValue","nVarDigits"],"nVarDigits":6}]},{"PropertyValue":[{"CombinedUncertainty":{"nCombExpandUncertValue":0.348,"tml_elements":["nCombUncertAssessNum","nCombExpandUncertValue"],"nCombUncertAssessNum":1},"nPropValue":804.861,"nPropDigits":6,"nPropNumber":1,"tml_elements":["nPropNumber","nPropValue","nPropDigits","CombinedUncertainty"]}],"tml_elements":["VariableValue","PropertyValue"],"VariableValue":[{"nVarValue":437.302,"nVarNumber":1,"nVarDigits":6,"tml_elements":["nVarNumber","nVarValue","nVarDigits"]}]},{"tml_elements":["VariableValue","PropertyValue"],"PropertyValue":[{"tml_elements":["nPropNumber","nPropValue","nPropDigits","CombinedUncertainty"],"nPropDigits":6,"nPropNumber":1,"nPropValue":910.819,"CombinedUncertainty":{"nCombExpandUncertValue":0.384,"tml_elements":["nCombUncertAssessNum","nCombExpandUncertValue"],"nCombUncertAssessNum":1}}],"VariableValue":[{"nVarValue":443.496,"nVarDigits":6,"tml_elements":["nVarNumber","nVarValue","nVarDigits"],"nVarNumber":1}]},{"PropertyValue":[{"nPropNumber":1,"nPropDigits":7,"tml_elements":["nPropNumber","nPropValue","nPropDigits","CombinedUncertainty"],"CombinedUncertainty":{"nCombExpandUncertValue":0.422,"tml_elements":["nCombUncertAssessNum","nCombExpandUncertValue"],"nCombUncertAssessNum":1},"nPropValue":1025.474}],"tml_elements":["VariableValue","PropertyValue"],"VariableValue":[{"tml_elements":["nVarNumber","nVarValue","nVarDigits"],"nVarDigits":6,"nVarNumber":1,"nVarValue":449.596}]},{"VariableValue":[{"tml_elements":["nVarNumber","nVarValue","nVarDigits"],"nVarDigits":6,"nVarNumber":1,"nVarValue":455.736}],"tml_elements":["VariableValue","PropertyValue"],"PropertyValue":[{"nPropValue":1151.968,"CombinedUncertainty":{"nCombExpandUncertValue":0.464,"tml_elements":["nCombUncertAssessNum","nCombExpandUncertValue"],"nCombUncertAssessNum":1},"nPropNumber":1,"nPropDigits":7,"tml_elements":["nPropNumber","nPropValue","nPropDigits","CombinedUncertainty"]}]},{"tml_elements":["VariableValue","PropertyValue"],"PropertyValue":[{"nPropDigits":7,"nPropNumber":1,"tml_elements":["nPropNumber","nPropValue","nPropDigits","CombinedUncertainty"],"CombinedUncertainty":{"tml_elements":["nCombUncertAssessNum","nCombExpandUncertValue"],"nCombExpandUncertValue":0.509,"nCombUncertAssessNum":1},"nPropValue":1290.201}],"VariableValue":[{"nVarValue":461.874,"tml_elements":["nVarNumber","nVarValue","nVarDigits"],"nVarDigits":6,"nVarNumber":1}]},{"tml_elements":["VariableValue","PropertyValue"],"PropertyValue":[{"CombinedUncertainty":{"nCombUncertAssessNum":1,"tml_elements":["nCombUncertAssessNum","nCombExpandUncertValue"],"nCombExpandUncertValue":0.55},"nPropValue":1450.28,"nPropNumber":1,"nPropDigits":6,"tml_elements":["nPropNumber","nPropValue","nPropDigits","CombinedUncertainty"]}],"VariableValue":[{"nVarValue":468.37,"nVarDigits":5,"tml_elements":["nVarNumber","nVarValue","nVarDigits"],"nVarNumber":1}]},{"VariableValue":[{"nVarValue":474.052,"nVarDigits":6,"tml_elements":["nVarNumber","nVarValue","nVarDigits"],"nVarNumber":1}],"PropertyValue":[{"CombinedUncertainty":{"nCombExpandUncertValue":0.602,"tml_elements":["nCombUncertAssessNum","nCombExpandUncertValue"],"nCombUncertAssessNum":1},"nPropValue":1602.627,"tml_elements":["nPropNumber","nPropValue","nPropDigits","CombinedUncertainty"],"nPropNumber":1,"nPropDigits":7}],"tml_elements":["VariableValue","PropertyValue"]},{"VariableValue":[{"nVarValue":479.154,"nVarNumber":1,"tml_elements":["nVarNumber","nVarValue","nVarDigits"],"nVarDigits":6}],"tml_elements":["VariableValue","PropertyValue"],"PropertyValue":[{"nPropValue":1749.838,"CombinedUncertainty":{"nCombUncertAssessNum":1,"nCombExpandUncertValue":0.652,"tml_elements":["nCombUncertAssessNum","nCombExpandUncertValue"]},"tml_elements":["nPropNumber","nPropValue","nPropDigits","CombinedUncertainty"],"nPropNumber":1,"nPropDigits":7}]},{"tml_elements":["VariableValue","PropertyValue"],"PropertyValue":[{"nPropDigits":7,"nPropNumber":1,"tml_elements":["nPropNumber","nPropValue","nPropDigits","CombinedUncertainty"],"nPropValue":1923.878,"CombinedUncertainty":{"tml_elements":["nCombUncertAssessNum","nCombExpandUncertValue"],"nCombExpandUncertValue":0.702,"nCombUncertAssessNum":1}}],"VariableValue":[{"nVarValue":484.769,"tml_elements":["nVarNumber","nVarValue","nVarDigits"],"nVarDigits":6,"nVarNumber":1}]},{"VariableValue":[{"nVarDigits":5,"tml_elements":["nVarNumber","nVarValue","nVarDigits"],"nVarNumber":1,"nVarValue":490.37}],"PropertyValue":[{"CombinedUncertainty":{"nCombUncertAssessNum":1,"tml_elements":["nCombUncertAssessNum","nCombExpandUncertValue"],"nCombExpandUncertValue":0.76},"nPropValue":2110.77,"tml_elements":["nPropNumber","nPropValue","nPropDigits","CombinedUncertainty"],"nPropNumber":1,"nPropDigits":6}],"tml_elements":["VariableValue","PropertyValue"]},{"VariableValue":[{"nVarValue":495.752,"nVarNumber":1,"tml_elements":["nVarNumber","nVarValue","nVarDigits"],"nVarDigits":6}],"PropertyValue":[{"CombinedUncertainty":{"nCombExpandUncertValue":0.815,"tml_elements":["nCombUncertAssessNum","nCombExpandUncertValue"],"nCombUncertAssessNum":1},"nPropValue":2303.512,"nPropDigits":7,"nPropNumber":1,"tml_elements":["nPropNumber","nPropValue","nPropDigits","CombinedUncertainty"]}],"tml_elements":["VariableValue","PropertyValue"]},{"PropertyValue":[{"tml_elements":["nPropNumber","nPropValue","nPropDigits","CombinedUncertainty"],"nPropDigits":7,"nPropNumber":1,"nPropValue":2523.662,"CombinedUncertainty":{"nCombUncertAssessNum":1,"nCombExpandUncertValue":0.875,"tml_elements":["nCombUncertAssessNum","nCombExpandUncertValue"]}}],"tml_elements":["VariableValue","PropertyValue"],"VariableValue":[{"nVarValue":501.48,"tml_elements":["nVarNumber","nVarValue","nVarDigits"],"nVarDigits":5,"nVarNumber":1}]},{"VariableValue":[{"nVarNumber":1,"tml_elements":["nVarNumber","nVarValue","nVarDigits"],"nVarDigits":6,"nVarValue":506.921}],"PropertyValue":[{"nPropValue":2747.952,"CombinedUncertainty":{"nCombExpandUncertValue":0.942,"tml_elements":["nCombUncertAssessNum","nCombExpandUncertValue"],"nCombUncertAssessNum":1},"nPropNumber":1,"nPropDigits":7,"tml_elements":["nPropNumber","nPropValue","nPropDigits","CombinedUncertainty"]}],"tml_elements":["VariableValue","PropertyValue"]},{"VariableValue":[{"tml_elements":["nVarNumber","nVarValue","nVarDigits"],"nVarDigits":5,"nVarNumber":1,"nVarValue":512.61}],"PropertyValue":[{"CombinedUncertainty":{"nCombUncertAssessNum":1,"nCombExpandUncertValue":1.01,"tml_elements":["nCombUncertAssessNum","nCombExpandUncertValue"]},"nPropValue":2999.224,"nPropNumber":1,"nPropDigits":7,"tml_elements":["nPropNumber","nPropValue","nPropDigits","CombinedUncertainty"]}],"tml_elements":["VariableValue","PropertyValue"]},{"PropertyValue":[{"nPropValue":3254.077,"CombinedUncertainty":{"nCombUncertAssessNum":1,"tml_elements":["nCombUncertAssessNum","nCombExpandUncertValue"],"nCombExpandUncertValue":1.081},"tml_elements":["nPropNumber","nPropValue","nPropDigits","CombinedUncertainty"],"nPropNumber":1,"nPropDigits":7}],"tml_elements":["VariableValue","PropertyValue"],"VariableValue":[{"nVarValue":518.008,"nVarNumber":1,"tml_elements":["nVarNumber","nVarValue","nVarDigits"],"nVarDigits":6}]},{"tml_elements":["VariableValue","PropertyValue"],"PropertyValue":[{"nPropValue":3512.89,"CombinedUncertainty":{"tml_elements":["nCombUncertAssessNum","nCombExpandUncertValue"],"nCombExpandUncertValue":1.15,"nCombUncertAssessNum":1},"tml_elements":["nPropNumber","nPropValue","nPropDigits","CombinedUncertainty"],"nPropDigits":6,"nPropNumber":1}],"VariableValue":[{"nVarNumber":1,"nVarDigits":6,"tml_elements":["nVarNumber","nVarValue","nVarDigits"],"nVarValue":523.151}]},{"PropertyValue":[{"nPropValue":3760.372,"CombinedUncertainty":{"nCombUncertAssessNum":1,"nCombExpandUncertValue":1.22,"tml_elements":["nCombUncertAssessNum","nCombExpandUncertValue"]},"nPropNumber":1,"nPropDigits":7,"tml_elements":["nPropNumber","nPropValue","nPropDigits","CombinedUncertainty"]}],"tml_elements":["VariableValue","PropertyValue"],"VariableValue":[{"nVarNumber":1,"nVarDigits":5,"tml_elements":["nVarNumber","nVarValue","nVarDigits"],"nVarValue":527.79}]},{"VariableValue":[{"nVarValue":532.079,"nVarNumber":1,"nVarDigits":6,"tml_elements":["nVarNumber","nVarValue","nVarDigits"]}],"PropertyValue":[{"tml_elements":["nPropNumber","nPropValue","nPropDigits","CombinedUncertainty"],"nPropNumber":1,"nPropDigits":7,"nPropValue":4001.463,"CombinedUncertainty":{"nCombUncertAssessNum":1,"tml_elements":["nCombUncertAssessNum","nCombExpandUncertValue"],"nCombExpandUncertValue":1.278}}],"tml_elements":["VariableValue","PropertyValue"]},{"VariableValue":[{"nVarValue":535.032,"nVarNumber":1,"tml_elements":["nVarNumber","nVarValue","nVarDigits"],"nVarDigits":6}],"PropertyValue":[{"nPropNumber":1,"nPropDigits":7,"tml_elements":["nPropNumber","nPropValue","nPropDigits","CombinedUncertainty"],"nPropValue":4174.613,"CombinedUncertainty":{"nCombExpandUncertValue":1.316,"tml_elements":["nCombUncertAssessNum","nCombExpandUncertValue"],"nCombUncertAssessNum":1}}],"tml_elements":["VariableValue","PropertyValue"]}],"nPureOrMixtureDataNumber":1,"dateDateAdded":"7/8/2004","sCompiler":"KBK"}],"THERMOML_MD5_CHECKSUM":"06cfd7261aaf89002ad2a26daec328ef","Citation":{"eType":"journal","sVol":"49","sPage":"486-491","sPubName":"J. Chem. Eng. Data","yrPubYr":"2004","sIDNum":"3","dateCit":"2020-09-29","tml_elements":["TRCRefID","eType","eSourceType","sAuthor","sPubName","yrPubYr","dateCit","sTitle","sAbstract","sKeyword","sDOI","sIDNum","sVol","sPage"],"sAuthor":["Ewing, M. B.[Michael B.]","Ochoa, J. C. S.[Jesus C. Sanchez]"],"sKeyword":["Vapor Pressures"],"TRCRefID":{"yrYrPub":"2004","nAuthorn":"0","tml_elements":["yrYrPub","sAuthor1","sAuthor2","nAuthorn"],"sAuthor2":"och","sAuthor1":"ewi"},"sAbstract":"The vapor pressures of acetonitrile have been measured over the temperature and pressure range of 278 K and 4.3 kPa to 540 K and 4455 kPa. The upper limit exceeds the temperature at which decomposition of acetonitrile begins (about 536 K) so we were able to assess the effect of pyrolysis on the vapor pressures. Acetonitrile is strongly hygroscopic, and a comparison of results obtained with \"wet\" and \"dry\" samples allowed us to investigate in a similar way the effect of water as an impurity. The results have been correlated using generalized Wagner equations, a key feature of which is the use of the reversed reduced temperature  = 1 - T/Tc where Tc is the critical temperature. The standard form with terms in , 1.5, 2.5, and 5 produced unacceptable systematic deviations; but the equation ln(p/pc) = (Tc/T)(c1 + c1.51.5 + c22 + c2.52.5 + c5.55.5), where pc is the critical pressure, fits our results from 291 K to 535 K with a standard deviation of 63 ? 10-6 in ln p and significantly extends the range of correlation, toward both the triple and critical points, compared with work already in the literature. By extrapolation to Tc = 545.46 K, we obtain 4835 kPa for the critical pressure pc and 167 Pa for the triple-point pressure at Ts+l+g = 229.35 K. An Antoine equation that describes the results below a pressure of 125 kPa with a standard deviation of 1.5 mK in the condensation temperature has also been obtained.","sDOI":"10.1021/je034144f","sTitle":"Vapor Pressures of Acetonitrile Determined by Comparative Ebulliometry","eSourceType":"Original"},"Compound":[{"sFormulaMolec":"C2H3N","sStandardInChIKey":"WEVYAHXRMPXWCK-UHFFFAOYSA-N","tml_elements":["RegNum","sStandardInChI","sStandardInChIKey","sCommonName","sFormulaMolec","Sample"],"sCommonName":["acetonitrile","cyanomethane","ethanenitrile","ethanonitrile","methanecarbonitrile","methyl cyanide"],"Sample":[{"tml_elements":["nSampleNm","eSource","purity"],"purity":[{"eAnalMeth":["Not known"],"tml_elements":["nStep","nPurityMol","nPurityMolDigits","eAnalMeth"],"nPurityMol":99.9,"nPurityMolDigits":3,"nStep":1},{"nStep":2,"tml_elements":["nStep","ePurifMethod"],"ePurifMethod":["Molecular sieve treatment"]},{"nWaterMassPerCentDigits":1,"eAnalMeth":["Not known"],"nStep":3,"tml_elements":["nStep","nWaterMassPerCent","nWaterMassPerCentDigits","eAnalMeth"],"nWaterMassPerCent":0.02}],"eSource":"Commercial source","nSampleNm":1}],"RegNum":{"nOrgNum":1,"tml_elements":["nOrgNum"]},"sStandardInChI":"InChI=1S/C2H3N/c1-2-3/h1H3"}]}