{"Version":{"nVersionMinor":0,"nVersionMajor":2,"tml_elements":["nVersionMajor","nVersionMinor"]},"Compound":[{"sStandardInChIKey":"JCXGWMGPZLAOME-UHFFFAOYSA-N","sStandardInChI":"InChI=1S/Bi","RegNum":{"tml_elements":["nOrgNum"],"nOrgNum":1},"sFormulaMolec":"Bi","sCommonName":["bismuth"],"tml_elements":["RegNum","sStandardInChI","sStandardInChIKey","sCommonName","sFormulaMolec","Sample"],"Sample":[{"tml_elements":["nSampleNm","eSource","purity"],"purity":[{"eAnalMeth":["Stated by supplier"],"tml_elements":["nStep","nUnknownPerCent","nUnknownPerCentDigits","eAnalMeth"],"nStep":1,"nUnknownPerCent":99.999,"nUnknownPerCentDigits":5},{"tml_elements":["nStep","ePurifMethod"],"nStep":2,"ePurifMethod":["None used"]}],"nSampleNm":1,"eSource":"Commercial source"}]}],"Citation":{"eSourceType":"Original","sAbstract":"An adiabatic calorimeter was used to measure the enthalpy of fusion of a sample of high-purity bismuth. The new value of the enthalpy of fusion was determined to be Hfus = (53.146 +/- 0.082) J.g-1, where the uncertainty corresponded to a 95% confidence interval. The temperature of fusion of this sample was found not to differ with previous accurate determinations within the accuracy of the fusion-temperature determination made in the present study. A comparison with some other enthalpy of fusion determinations is made.","TRCRefID":{"yrYrPub":"2004","sAuthor1":"arc","sAuthor2":"","tml_elements":["yrYrPub","sAuthor1","sAuthor2","nAuthorn"],"nAuthorn":"0"},"sDOI":"10.1021/je049913p","sTitle":"Enthalpy of Fusion of Bismuth: A Certified Reference Material for Differential Scanning Calorimetry","tml_elements":["TRCRefID","eType","eSourceType","sAuthor","sPubName","yrPubYr","dateCit","sTitle","sAbstract","sKeyword","sDOI","sIDNum","sVol","sPage"],"sAuthor":["Archer, D. G.[Donald G.]"],"sKeyword":["enthalpy of fusion","bismuth","adiabatic calorimeter"],"dateCit":"2020-09-29","sIDNum":"5","sPubName":"J. Chem. Eng. Data","yrPubYr":"2004","sPage":"1364-1367","sVol":"49","eType":"journal"},"THERMOML_MD5_CHECKSUM":"a395e607369b41412fa0b4bb9a366f00","PureOrMixtureData":[{"NumValues":[{"VariableValue":[],"PropertyValue":[{"nPropValue":11.1064691856762,"CombinedUncertainty":{"nCombUncertAssessNum":1,"tml_elements":["nCombUncertAssessNum","nCombExpandUncertValue"],"nCombExpandUncertValue":0.01692741078},"nPropNumber":1,"nPropDigits":7,"tml_elements":["nPropNumber","nPropValue","nPropDigits","CombinedUncertainty"]}],"tml_elements":["PropertyValue"]}],"nPureOrMixtureDataNumber":1,"dateDateAdded":"11/19/2004","sCompiler":"SJR","Property":[{"tml_elements":["nPropNumber","Property-MethodID","PropPhaseID","ePresentation","CombinedUncertainty"],"ePresentation":"Direct value, X","nPropNumber":1,"Property-MethodID":{"tml_elements":["PropertyGroup"],"PropertyGroup":{"tml_elements":["PhaseTransition"],"PhaseTransition":{"eMethodName":"Adiabatic calorimetry","ePropName":"Molar enthalpy of transition or fusion, kJ/mol","tml_elements":["ePropName","eMethodName"]}}},"PropPhaseID":{"tml_elements":["ePropPhase"],"ePropPhase":"Crystal"},"CombinedUncertainty":{"sCombUncertEvaluator":"Data file compiler","nCombUncertAssessNum":1,"nCombUncertLevOfConfid":95,"eCombUncertEvalMethod":"Propagation of evaluated standard uncertainties","tml_elements":["nCombUncertAssessNum","sCombUncertEvaluator","eCombUncertEvalMethod","nCombUncertLevOfConfid"]}}],"eExpPurpose":"Principal objective of the work","sContributor":"TRC","Component":[{"tml_elements":["RegNum","nSampleNm"],"nSampleNm":1,"RegNum":{"nOrgNum":1,"tml_elements":["nOrgNum"]}}],"tml_elements":["nPureOrMixtureDataNumber","Component","eExpPurpose","sCompiler","sContributor","dateDateAdded","Property","PhaseID","NumValues"],"PhaseID":[{"ePhase":"Crystal","tml_elements":["ePhase"]},{"ePhase":"Liquid","tml_elements":["ePhase"]},{"ePhase":"Gas","tml_elements":["ePhase"]}]},{"sContributor":"JCE","PhaseID":[{"ePhase":"Crystal","tml_elements":["ePhase"]},{"ePhase":"Liquid","tml_elements":["ePhase"]},{"ePhase":"Gas","tml_elements":["ePhase"]}],"tml_elements":["nPureOrMixtureDataNumber","Component","eExpPurpose","sCompiler","sContributor","dateDateAdded","Property","PhaseID","NumValues"],"Component":[{"tml_elements":["RegNum","nSampleNm"],"RegNum":{"nOrgNum":1,"tml_elements":["nOrgNum"]},"nSampleNm":1}],"sCompiler":"JCE","dateDateAdded":"11/19/2004","nPureOrMixtureDataNumber":2,"NumValues":[{"tml_elements":["PropertyValue"],"PropertyValue":[{"nPropDigits":6,"nPropNumber":1,"tml_elements":["nPropNumber","nPropValue","nPropDigits","CombinedUncertainty"],"nPropValue":544.556,"CombinedUncertainty":{"nCombUncertAssessNum":1,"tml_elements":["nCombUncertAssessNum","nCombExpandUncertValue"],"nCombExpandUncertValue":0.005}}],"VariableValue":[]}],"eExpPurpose":"Principal objective of the work","Property":[{"ePresentation":"Direct value, X","tml_elements":["nPropNumber","Property-MethodID","PropPhaseID","ePresentation","CombinedUncertainty"],"PropPhaseID":{"tml_elements":["ePropPhase"],"ePropPhase":"Crystal"},"nPropNumber":1,"CombinedUncertainty":{"nCombUncertAssessNum":1,"sCombUncertEvaluator":"Data file compiler","tml_elements":["nCombUncertAssessNum","sCombUncertEvaluator","eCombUncertEvalMethod","nCombUncertLevOfConfid"],"eCombUncertEvalMethod":"Propagation of evaluated standard uncertainties","nCombUncertLevOfConfid":95},"Property-MethodID":{"tml_elements":["PropertyGroup"],"PropertyGroup":{"PhaseTransition":{"tml_elements":["ePropName","eMethodName"],"eMethodName":"Adiabatic calorimetry","ePropName":"Triple point temperature, K"},"tml_elements":["PhaseTransition"]}}}]}],"tml_elements":["Version","Citation","Compound","PureOrMixtureData"]}