{"THERMOML_MD5_CHECKSUM":"c48be0307b8b97da8a068320974172d4","Compound":[{"sFormulaMolec":"C2H8N2","tml_elements":["RegNum","sStandardInChI","sStandardInChIKey","sCommonName","sFormulaMolec","Sample"],"sCommonName":["ethane-1,2-diamine","1,2-diaminoethane","1,2-ethanediamine","dimethylenediamine","ethylenediamine"],"Sample":[{"purity":[{"nUnknownPerCent":99.5,"nUnknownPerCentDigits":3,"tml_elements":["nStep","nUnknownPerCent","nUnknownPerCentDigits","eAnalMeth"],"nStep":1,"eAnalMeth":["Stated by supplier"]},{"tml_elements":["nStep","ePurifMethod"],"nStep":2,"ePurifMethod":["Unspecified"]},{"tml_elements":["nStep","nUnknownPerCent","nUnknownPerCentDigits","eAnalMeth"],"nStep":3,"eAnalMeth":["Gas chromatography"],"nUnknownPerCent":99.9,"nUnknownPerCentDigits":3},{"nUnknownPerCentDigits":3,"nUnknownPerCent":99.9,"nStep":4,"tml_elements":["nStep","nUnknownPerCent","nUnknownPerCentDigits","eAnalMeth"],"eAnalMeth":["NMR (proton)"]}],"tml_elements":["nSampleNm","eSource","purity"],"eSource":"Commercial source","nSampleNm":1}],"sStandardInChIKey":"PIICEJLVQHRZGT-UHFFFAOYSA-N","sStandardInChI":"InChI=1S/C2H8N2/c3-1-2-4/h1-4H2","RegNum":{"nOrgNum":1,"tml_elements":["nOrgNum"]}},{"sFormulaMolec":"C3H10N2","tml_elements":["RegNum","sStandardInChI","sStandardInChIKey","sCommonName","sFormulaMolec","Sample"],"Sample":[{"eSource":"Commercial source","nSampleNm":1,"purity":[{"eAnalMeth":["Stated by supplier"],"tml_elements":["nStep","nUnknownPerCent","nUnknownPerCentDigits","eAnalMeth"],"nStep":1,"nUnknownPerCent":100,"nUnknownPerCentDigits":1},{"ePurifMethod":["Unspecified"],"nStep":2,"tml_elements":["nStep","ePurifMethod"]},{"eAnalMeth":["Gas chromatography"],"nStep":3,"tml_elements":["nStep","nUnknownPerCent","nUnknownPerCentDigits","eAnalMeth"],"nUnknownPerCentDigits":3,"nUnknownPerCent":98.5},{"nUnknownPerCentDigits":1,"nUnknownPerCent":100,"eAnalMeth":["NMR (proton)"],"nStep":4,"tml_elements":["nStep","nUnknownPerCent","nUnknownPerCentDigits","eAnalMeth"]}],"tml_elements":["nSampleNm","eSource","purity"]}],"sCommonName":["1,3-propanediamine","1,3-diaminopropane","trimethylenediamine"],"RegNum":{"nOrgNum":2,"tml_elements":["nOrgNum"]},"sStandardInChI":"InChI=1S/C3H10N2/c4-2-1-3-5/h1-5H2","sStandardInChIKey":"XFNJVJPLKCPIBV-UHFFFAOYSA-N"},{"RegNum":{"tml_elements":["nOrgNum"],"nOrgNum":3},"sStandardInChI":"InChI=1S/C4H12N2/c5-3-1-2-4-6/h1-6H2","sStandardInChIKey":"KIDHWZJUCRJVML-UHFFFAOYSA-N","sFormulaMolec":"C4H12N2","tml_elements":["RegNum","sStandardInChI","sStandardInChIKey","sCommonName","sFormulaMolec","Sample"],"sCommonName":["1,4-butanediamine","1,4-diaminobutane","putrescine","tetramethylenediamine"],"Sample":[{"tml_elements":["nSampleNm","eSource","purity"],"purity":[{"eAnalMeth":["Stated by supplier"],"nStep":1,"tml_elements":["nStep","nUnknownPerCent","nUnknownPerCentDigits","eAnalMeth"],"nUnknownPerCentDigits":3,"nUnknownPerCent":99.2},{"tml_elements":["nStep","ePurifMethod"],"nStep":2,"ePurifMethod":["Unspecified"]},{"eAnalMeth":["Gas chromatography"],"tml_elements":["nStep","nUnknownPerCent","nUnknownPerCentDigits","eAnalMeth"],"nStep":3,"nUnknownPerCent":99.7,"nUnknownPerCentDigits":3},{"tml_elements":["nStep","nUnknownPerCent","nUnknownPerCentDigits","eAnalMeth"],"nStep":4,"eAnalMeth":["NMR (proton)"],"nUnknownPerCent":99.9,"nUnknownPerCentDigits":3}],"eSource":"Commercial source","nSampleNm":1}]},{"Sample":[{"eSource":"Commercial source","nSampleNm":1,"tml_elements":["nSampleNm","eSource","purity"],"purity":[{"eAnalMeth":["Stated by supplier"],"nStep":1,"tml_elements":["nStep","nUnknownPerCent","nUnknownPerCentDigits","eAnalMeth"],"nUnknownPerCentDigits":3,"nUnknownPerCent":99.9},{"tml_elements":["nStep","ePurifMethod"],"nStep":2,"ePurifMethod":["Unspecified"]},{"eAnalMeth":["Gas chromatography"],"tml_elements":["nStep","nUnknownPerCent","nUnknownPerCentDigits","eAnalMeth"],"nStep":3,"nUnknownPerCent":99.9,"nUnknownPerCentDigits":3},{"nUnknownPerCentDigits":3,"nUnknownPerCent":99.8,"eAnalMeth":["NMR (proton)"],"nStep":4,"tml_elements":["nStep","nUnknownPerCent","nUnknownPerCentDigits","eAnalMeth"]}]}],"sCommonName":["1,6-hexanediamine","1,6-diaminohexane","hexamethylenediamine"],"tml_elements":["RegNum","sStandardInChI","sStandardInChIKey","sCommonName","sFormulaMolec","Sample"],"sFormulaMolec":"C6H16N2","RegNum":{"tml_elements":["nOrgNum"],"nOrgNum":4},"sStandardInChI":"InChI=1S/C6H16N2/c7-5-3-1-2-4-6-8/h1-8H2","sStandardInChIKey":"NAQMVNRVTILPCV-UHFFFAOYSA-N"},{"sStandardInChIKey":"PWGJDPKCLMLPJW-UHFFFAOYSA-N","RegNum":{"nOrgNum":5,"tml_elements":["nOrgNum"]},"sStandardInChI":"InChI=1S/C8H20N2/c9-7-5-3-1-2-4-6-8-10/h1-10H2","sFormulaMolec":"C8H20N2","tml_elements":["RegNum","sStandardInChI","sStandardInChIKey","sCommonName","sFormulaMolec","Sample"],"Sample":[{"purity":[{"nUnknownPerCentDigits":3,"nUnknownPerCent":99.7,"eAnalMeth":["Stated by supplier"],"nStep":1,"tml_elements":["nStep","nUnknownPerCent","nUnknownPerCentDigits","eAnalMeth"]},{"ePurifMethod":["Unspecified"],"nStep":2,"tml_elements":["nStep","ePurifMethod"]},{"eAnalMeth":["Gas chromatography"],"tml_elements":["nStep","nUnknownPerCent","nUnknownPerCentDigits","eAnalMeth"],"nStep":3,"nUnknownPerCent":100,"nUnknownPerCentDigits":1},{"nUnknownPerCent":99.9,"nUnknownPerCentDigits":3,"tml_elements":["nStep","nUnknownPerCent","nUnknownPerCentDigits","eAnalMeth"],"nStep":4,"eAnalMeth":["NMR (proton)"]}],"tml_elements":["nSampleNm","eSource","purity"],"eSource":"Commercial source","nSampleNm":1}],"sCommonName":["1,8-diaminooctane","1,8-octanediamine","octamethylenediamine"]},{"sStandardInChIKey":"SXJVFQLYZSNZBT-UHFFFAOYSA-N","sFormulaMolec":"C9H22N2","tml_elements":["RegNum","sStandardInChI","sStandardInChIKey","sCommonName","sFormulaMolec","Sample"],"Sample":[{"purity":[{"nUnknownPerCent":98,"nUnknownPerCentDigits":2,"eAnalMeth":["Stated by supplier"],"tml_elements":["nStep","nUnknownPerCent","nUnknownPerCentDigits","eAnalMeth"],"nStep":1},{"tml_elements":["nStep","ePurifMethod"],"nStep":2,"ePurifMethod":["Unspecified"]},{"eAnalMeth":["Gas chromatography"],"nStep":3,"tml_elements":["nStep","nUnknownPerCent","nUnknownPerCentDigits","eAnalMeth"],"nUnknownPerCentDigits":1,"nUnknownPerCent":100},{"nUnknownPerCentDigits":3,"nUnknownPerCent":99.9,"eAnalMeth":["NMR (proton)"],"nStep":4,"tml_elements":["nStep","nUnknownPerCent","nUnknownPerCentDigits","eAnalMeth"]}],"tml_elements":["nSampleNm","eSource","purity"],"nSampleNm":1,"eSource":"Commercial source"}],"sCommonName":["1,9-diaminononane","1,9-nonanediamine","nonamethylenediamine"],"RegNum":{"tml_elements":["nOrgNum"],"nOrgNum":6},"sStandardInChI":"InChI=1S/C9H22N2/c10-8-6-4-2-1-3-5-7-9-11/h1-11H2"},{"sFormulaMolec":"C10H24N2","tml_elements":["RegNum","sStandardInChI","sStandardInChIKey","sCommonName","sFormulaMolec","Sample"],"sCommonName":["1,10-diaminodecane","decamethylenediamine"],"Sample":[{"nSampleNm":1,"eSource":"Commercial source","purity":[{"nStep":1,"tml_elements":["nStep","nUnknownPerCent","nUnknownPerCentDigits","eAnalMeth"],"eAnalMeth":["Stated by supplier"],"nUnknownPerCentDigits":3,"nUnknownPerCent":98.8},{"ePurifMethod":["Unspecified"],"nStep":2,"tml_elements":["nStep","ePurifMethod"]},{"eAnalMeth":["Gas chromatography"],"tml_elements":["nStep","nUnknownPerCent","nUnknownPerCentDigits","eAnalMeth"],"nStep":3,"nUnknownPerCent":99.8,"nUnknownPerCentDigits":3},{"eAnalMeth":["NMR (proton)"],"tml_elements":["nStep","nUnknownPerCent","nUnknownPerCentDigits","eAnalMeth"],"nStep":4,"nUnknownPerCent":100,"nUnknownPerCentDigits":1}],"tml_elements":["nSampleNm","eSource","purity"]}],"sStandardInChIKey":"YQLZOAVZWJBZSY-UHFFFAOYSA-N","sStandardInChI":"InChI=1S/C10H24N2/c11-9-7-5-3-1-2-4-6-8-10-12/h1-12H2","RegNum":{"nOrgNum":7,"tml_elements":["nOrgNum"]}},{"Sample":[{"purity":[{"eAnalMeth":["Stated by supplier"],"tml_elements":["nStep","nUnknownPerCent","nUnknownPerCentDigits","eAnalMeth"],"nStep":1,"nUnknownPerCent":99.5,"nUnknownPerCentDigits":3},{"ePurifMethod":["Unspecified"],"tml_elements":["nStep","ePurifMethod"],"nStep":2},{"nUnknownPerCent":100,"nUnknownPerCentDigits":1,"tml_elements":["nStep","nUnknownPerCent","nUnknownPerCentDigits","eAnalMeth"],"nStep":3,"eAnalMeth":["Gas chromatography"]},{"nUnknownPerCentDigits":3,"nUnknownPerCent":99.8,"eAnalMeth":["NMR (proton)"],"nStep":4,"tml_elements":["nStep","nUnknownPerCent","nUnknownPerCentDigits","eAnalMeth"]}],"tml_elements":["nSampleNm","eSource","purity"],"eSource":"Commercial source","nSampleNm":1}],"tml_elements":["RegNum","sStandardInChI","sStandardInChIKey","sCommonName","sFormulaMolec","Sample"],"sCommonName":["1,12-dodecanediamine","1,12-diaminododecane","dodecamethylenediamine"],"sStandardInChIKey":"QFTYSVGGYOXFRQ-UHFFFAOYSA-N","sFormulaMolec":"C12H28N2","sStandardInChI":"InChI=1S/C12H28N2/c13-11-9-7-5-3-1-2-4-6-8-10-12-14/h1-14H2","RegNum":{"nOrgNum":8,"tml_elements":["nOrgNum"]}}],"Citation":{"sIDNum":"2","dateCit":"2020-09-29","sPubName":"J. Chem. Eng. Data","yrPubYr":"2006","sPage":"609-611","sVol":"51","eType":"journal","eSourceType":"Original","sAbstract":"The critical temperatures and pressures of eight n-diaminoalkanes NH2(CH2)nNH2 with n ) 2, 3, 4, 6, 8, 9, 10, and 12 have been measured. The method of pulse heating of a wire probe immersed into the liquid under study has been used. Residence times are from (0.03 to 1) ms. The critical properties of diaminoalkanes have been estimated by the group-contribution methods by Joback and Reid, Constantinou and Gani, and Marrero and Gani. These properties have also been calculated using a method based on the assumption that the functions describing the dependence of the critical properties of homologous series on the number of mers in a molecule should be self-similar and provide the scaling behavior for long-chain molecules. The last method provides the best accuracy in calculating the critical properties of diaminoalkanes. For this method, the average absolute errors are equal to 0.4 % for the critical temperature and about 2 % for the critical pressure.","TRCRefID":{"yrYrPub":"2006","tml_elements":["yrYrPub","sAuthor1","sAuthor2","nAuthorn"],"nAuthorn":"0","sAuthor1":"nik","sAuthor2":"pop"},"sDOI":"10.1021/je050424e","sTitle":"Critical Pressures and Temperatures of n-Diaminoalkanes (C2 to C12)","tml_elements":["TRCRefID","eType","eSourceType","sAuthor","sPubName","yrPubYr","dateCit","sTitle","sAbstract","sKeyword","sDOI","sIDNum","sVol","sPage"],"sAuthor":["Nikitin, E. D.[Eugene D.]","Popov, A. P.[Alexander P.]","Yatluk, Y. G.[Yuri G.]"],"sKeyword":["critical temperature","critical pressure","n-diaminoalkanes","pulse heating"]},"tml_elements":["Version","Citation","Compound","PureOrMixtureData"],"PureOrMixtureData":[{"Property":[{"tml_elements":["nPropNumber","Property-MethodID","PropPhaseID","ePresentation","CombinedUncertainty"],"ePresentation":"Direct value, X","nPropNumber":1,"Property-MethodID":{"tml_elements":["PropertyGroup"],"PropertyGroup":{"Criticals":{"sMethodName":"pulse heating","ePropName":"Critical pressure, kPa","tml_elements":["ePropName","sMethodName"]},"tml_elements":["Criticals"]}},"PropPhaseID":{"tml_elements":["ePropPhase"],"ePropPhase":"Liquid"},"CombinedUncertainty":{"tml_elements":["nCombUncertAssessNum","sCombUncertEvaluator","eCombUncertEvalMethod","nCombUncertLevOfConfid"],"nCombUncertLevOfConfid":95,"eCombUncertEvalMethod":"Propagation of evaluated standard uncertainties","nCombUncertAssessNum":1,"sCombUncertEvaluator":"Data file compiler"}}],"eExpPurpose":"Principal objective of the work","NumValues":[{"PropertyValue":[{"tml_elements":["nPropNumber","nPropValue","nPropDigits","CombinedUncertainty"],"nPropDigits":3,"nPropNumber":1,"nPropValue":6650,"CombinedUncertainty":{"nCombUncertAssessNum":1,"nCombExpandUncertValue":340,"tml_elements":["nCombUncertAssessNum","nCombExpandUncertValue"]}}],"tml_elements":["PropertyValue"],"VariableValue":[]}],"sCompiler":"JCE","nPureOrMixtureDataNumber":1,"dateDateAdded":"3/30/2006","Component":[{"RegNum":{"nOrgNum":1,"tml_elements":["nOrgNum"]},"nSampleNm":1,"tml_elements":["RegNum","nSampleNm"]}],"PhaseID":[{"tml_elements":["ePhase"],"ePhase":"Liquid"},{"ePhase":"Gas","tml_elements":["ePhase"]}],"tml_elements":["nPureOrMixtureDataNumber","Component","eExpPurpose","sCompiler","sContributor","dateDateAdded","Property","PhaseID","NumValues"],"sContributor":"JCE"},{"eExpPurpose":"Principal objective of the work","Property":[{"CombinedUncertainty":{"nCombUncertAssessNum":1,"sCombUncertEvaluator":"Data file compiler","tml_elements":["nCombUncertAssessNum","sCombUncertEvaluator","eCombUncertEvalMethod","nCombUncertLevOfConfid"],"eCombUncertEvalMethod":"Propagation of evaluated standard uncertainties","nCombUncertLevOfConfid":95},"ePresentation":"Direct value, X","tml_elements":["nPropNumber","Property-MethodID","PropPhaseID","ePresentation","CombinedUncertainty"],"Property-MethodID":{"PropertyGroup":{"tml_elements":["Criticals"],"Criticals":{"sMethodName":"pulse heating:FP","ePropName":"Critical temperature, K","tml_elements":["ePropName","sMethodName"]}},"tml_elements":["PropertyGroup"]},"PropPhaseID":{"ePropPhase":"Liquid","tml_elements":["ePropPhase"]},"nPropNumber":1}],"dateDateAdded":"3/30/2006","nPureOrMixtureDataNumber":2,"sCompiler":"JCE","NumValues":[{"VariableValue":[],"PropertyValue":[{"nPropValue":614,"CombinedUncertainty":{"nCombUncertAssessNum":1,"tml_elements":["nCombUncertAssessNum","nCombExpandUncertValue"],"nCombExpandUncertValue":6},"nPropNumber":1,"nPropDigits":3,"tml_elements":["nPropNumber","nPropValue","nPropDigits","CombinedUncertainty"]}],"tml_elements":["PropertyValue"]}],"tml_elements":["nPureOrMixtureDataNumber","Component","eExpPurpose","sCompiler","sContributor","dateDateAdded","Property","PhaseID","NumValues"],"PhaseID":[{"ePhase":"Liquid","tml_elements":["ePhase"]},{"tml_elements":["ePhase"],"ePhase":"Gas"}],"Component":[{"tml_elements":["RegNum","nSampleNm"],"RegNum":{"tml_elements":["nOrgNum"],"nOrgNum":1},"nSampleNm":1}],"sContributor":"JCE"},{"sContributor":"JCE","PhaseID":[{"tml_elements":["ePhase"],"ePhase":"Liquid"},{"tml_elements":["ePhase"],"ePhase":"Gas"}],"tml_elements":["nPureOrMixtureDataNumber","Component","eExpPurpose","sCompiler","sContributor","dateDateAdded","Property","PhaseID","NumValues"],"Component":[{"tml_elements":["RegNum","nSampleNm"],"nSampleNm":1,"RegNum":{"nOrgNum":2,"tml_elements":["nOrgNum"]}}],"sCompiler":"JCE","nPureOrMixtureDataNumber":3,"dateDateAdded":"3/30/2006","NumValues":[{"PropertyValue":[{"tml_elements":["nPropNumber","nPropValue","nPropDigits","CombinedUncertainty"],"nPropNumber":1,"nPropDigits":3,"CombinedUncertainty":{"nCombExpandUncertValue":280,"tml_elements":["nCombUncertAssessNum","nCombExpandUncertValue"],"nCombUncertAssessNum":1},"nPropValue":5590}],"tml_elements":["PropertyValue"],"VariableValue":[]}],"eExpPurpose":"Principal objective of the work","Property":[{"CombinedUncertainty":{"nCombUncertAssessNum":1,"sCombUncertEvaluator":"Data file compiler","tml_elements":["nCombUncertAssessNum","sCombUncertEvaluator","eCombUncertEvalMethod","nCombUncertLevOfConfid"],"eCombUncertEvalMethod":"Propagation of evaluated standard uncertainties","nCombUncertLevOfConfid":95},"Property-MethodID":{"tml_elements":["PropertyGroup"],"PropertyGroup":{"Criticals":{"tml_elements":["ePropName","sMethodName"],"sMethodName":"pulse heating","ePropName":"Critical pressure, kPa"},"tml_elements":["Criticals"]}},"PropPhaseID":{"ePropPhase":"Liquid","tml_elements":["ePropPhase"]},"nPropNumber":1,"ePresentation":"Direct value, X","tml_elements":["nPropNumber","Property-MethodID","PropPhaseID","ePresentation","CombinedUncertainty"]}]},{"PhaseID":[{"tml_elements":["ePhase"],"ePhase":"Liquid"},{"tml_elements":["ePhase"],"ePhase":"Gas"}],"tml_elements":["nPureOrMixtureDataNumber","Component","eExpPurpose","sCompiler","sContributor","dateDateAdded","Property","PhaseID","NumValues"],"Component":[{"RegNum":{"nOrgNum":2,"tml_elements":["nOrgNum"]},"nSampleNm":1,"tml_elements":["RegNum","nSampleNm"]}],"sContributor":"JCE","Property":[{"Property-MethodID":{"tml_elements":["PropertyGroup"],"PropertyGroup":{"Criticals":{"sMethodName":"pulse heating","ePropName":"Critical temperature, K","tml_elements":["ePropName","sMethodName"]},"tml_elements":["Criticals"]}},"CombinedUncertainty":{"nCombUncertAssessNum":1,"sCombUncertEvaluator":"Data file compiler","tml_elements":["nCombUncertAssessNum","sCombUncertEvaluator","eCombUncertEvalMethod","nCombUncertLevOfConfid"],"nCombUncertLevOfConfid":95,"eCombUncertEvalMethod":"Propagation of evaluated standard uncertainties"},"PropPhaseID":{"tml_elements":["ePropPhase"],"ePropPhase":"Liquid"},"nPropNumber":1,"ePresentation":"Direct value, X","tml_elements":["nPropNumber","Property-MethodID","PropPhaseID","ePresentation","CombinedUncertainty"]}],"eExpPurpose":"Principal objective of the work","sCompiler":"JCE","nPureOrMixtureDataNumber":4,"dateDateAdded":"3/30/2006","NumValues":[{"tml_elements":["PropertyValue"],"PropertyValue":[{"tml_elements":["nPropNumber","nPropValue","nPropDigits","CombinedUncertainty"],"nPropDigits":3,"nPropNumber":1,"nPropValue":632,"CombinedUncertainty":{"tml_elements":["nCombUncertAssessNum","nCombExpandUncertValue"],"nCombExpandUncertValue":7,"nCombUncertAssessNum":1}}],"VariableValue":[]}]},{"sContributor":"JCE","tml_elements":["nPureOrMixtureDataNumber","Component","eExpPurpose","sCompiler","sContributor","dateDateAdded","Property","PhaseID","NumValues"],"PhaseID":[{"tml_elements":["ePhase"],"ePhase":"Liquid"},{"ePhase":"Gas","tml_elements":["ePhase"]}],"Component":[{"nSampleNm":1,"RegNum":{"tml_elements":["nOrgNum"],"nOrgNum":3},"tml_elements":["RegNum","nSampleNm"]}],"dateDateAdded":"3/30/2006","nPureOrMixtureDataNumber":5,"sCompiler":"JCE","NumValues":[{"VariableValue":[],"PropertyValue":[{"tml_elements":["nPropNumber","nPropValue","nPropDigits","CombinedUncertainty"],"nPropNumber":1,"nPropDigits":3,"nPropValue":4540,"CombinedUncertainty":{"nCombUncertAssessNum":1,"tml_elements":["nCombUncertAssessNum","nCombExpandUncertValue"],"nCombExpandUncertValue":220}}],"tml_elements":["PropertyValue"]}],"eExpPurpose":"Principal objective of the work","Property":[{"tml_elements":["nPropNumber","Property-MethodID","PropPhaseID","ePresentation","CombinedUncertainty"],"ePresentation":"Direct value, X","nPropNumber":1,"PropPhaseID":{"ePropPhase":"Liquid","tml_elements":["ePropPhase"]},"Property-MethodID":{"tml_elements":["PropertyGroup"],"PropertyGroup":{"tml_elements":["Criticals"],"Criticals":{"tml_elements":["ePropName","sMethodName"],"sMethodName":"pulse heating","ePropName":"Critical pressure, kPa"}}},"CombinedUncertainty":{"nCombUncertLevOfConfid":95,"eCombUncertEvalMethod":"Propagation of evaluated standard uncertainties","tml_elements":["nCombUncertAssessNum","sCombUncertEvaluator","eCombUncertEvalMethod","nCombUncertLevOfConfid"],"sCombUncertEvaluator":"Data file compiler","nCombUncertAssessNum":1}}]},{"NumValues":[{"VariableValue":[],"PropertyValue":[{"nPropNumber":1,"nPropDigits":3,"tml_elements":["nPropNumber","nPropValue","nPropDigits","CombinedUncertainty"],"nPropValue":651,"CombinedUncertainty":{"tml_elements":["nCombUncertAssessNum","nCombExpandUncertValue"],"nCombExpandUncertValue":7,"nCombUncertAssessNum":1}}],"tml_elements":["PropertyValue"]}],"sCompiler":"JCE","nPureOrMixtureDataNumber":6,"dateDateAdded":"3/30/2006","Property":[{"tml_elements":["nPropNumber","Property-MethodID","PropPhaseID","ePresentation","CombinedUncertainty"],"ePresentation":"Direct value, X","nPropNumber":1,"PropPhaseID":{"tml_elements":["ePropPhase"],"ePropPhase":"Liquid"},"Property-MethodID":{"tml_elements":["PropertyGroup"],"PropertyGroup":{"Criticals":{"tml_elements":["ePropName","sMethodName"],"ePropName":"Critical temperature, K","sMethodName":"pulse heating"},"tml_elements":["Criticals"]}},"CombinedUncertainty":{"sCombUncertEvaluator":"Data file compiler","nCombUncertAssessNum":1,"eCombUncertEvalMethod":"Propagation of evaluated standard uncertainties","nCombUncertLevOfConfid":95,"tml_elements":["nCombUncertAssessNum","sCombUncertEvaluator","eCombUncertEvalMethod","nCombUncertLevOfConfid"]}}],"eExpPurpose":"Principal objective of the work","sContributor":"JCE","Component":[{"tml_elements":["RegNum","nSampleNm"],"nSampleNm":1,"RegNum":{"tml_elements":["nOrgNum"],"nOrgNum":3}}],"PhaseID":[{"tml_elements":["ePhase"],"ePhase":"Liquid"},{"ePhase":"Gas","tml_elements":["ePhase"]}],"tml_elements":["nPureOrMixtureDataNumber","Component","eExpPurpose","sCompiler","sContributor","dateDateAdded","Property","PhaseID","NumValues"]},{"sCompiler":"JCE","nPureOrMixtureDataNumber":7,"dateDateAdded":"3/30/2006","NumValues":[{"VariableValue":[],"PropertyValue":[{"nPropValue":3590,"CombinedUncertainty":{"nCombUncertAssessNum":1,"nCombExpandUncertValue":160,"tml_elements":["nCombUncertAssessNum","nCombExpandUncertValue"]},"nPropNumber":1,"nPropDigits":3,"tml_elements":["nPropNumber","nPropValue","nPropDigits","CombinedUncertainty"]}],"tml_elements":["PropertyValue"]}],"eExpPurpose":"Principal objective of the work","Property":[{"CombinedUncertainty":{"tml_elements":["nCombUncertAssessNum","sCombUncertEvaluator","eCombUncertEvalMethod","nCombUncertLevOfConfid"],"eCombUncertEvalMethod":"Propagation of evaluated standard uncertainties","nCombUncertLevOfConfid":95,"nCombUncertAssessNum":1,"sCombUncertEvaluator":"Data file compiler"},"Property-MethodID":{"tml_elements":["PropertyGroup"],"PropertyGroup":{"tml_elements":["Criticals"],"Criticals":{"tml_elements":["ePropName","sMethodName"],"sMethodName":"pulse heating","ePropName":"Critical pressure, kPa"}}},"PropPhaseID":{"ePropPhase":"Liquid","tml_elements":["ePropPhase"]},"nPropNumber":1,"ePresentation":"Direct value, X","tml_elements":["nPropNumber","Property-MethodID","PropPhaseID","ePresentation","CombinedUncertainty"]}],"sContributor":"JCE","PhaseID":[{"tml_elements":["ePhase"],"ePhase":"Liquid"},{"tml_elements":["ePhase"],"ePhase":"Gas"}],"tml_elements":["nPureOrMixtureDataNumber","Component","eExpPurpose","sCompiler","sContributor","dateDateAdded","Property","PhaseID","NumValues"],"Component":[{"nSampleNm":1,"RegNum":{"nOrgNum":4,"tml_elements":["nOrgNum"]},"tml_elements":["RegNum","nSampleNm"]}]},{"eExpPurpose":"Principal objective of the work","Property":[{"PropPhaseID":{"ePropPhase":"Liquid","tml_elements":["ePropPhase"]},"nPropNumber":1,"ePresentation":"Direct value, X","tml_elements":["nPropNumber","Property-MethodID","PropPhaseID","ePresentation","CombinedUncertainty"],"Property-MethodID":{"PropertyGroup":{"tml_elements":["Criticals"],"Criticals":{"tml_elements":["ePropName","sMethodName"],"sMethodName":"pulse heating","ePropName":"Critical temperature, K"}},"tml_elements":["PropertyGroup"]},"CombinedUncertainty":{"sCombUncertEvaluator":"Data file compiler","nCombUncertAssessNum":1,"nCombUncertLevOfConfid":95,"eCombUncertEvalMethod":"Propagation of evaluated standard uncertainties","tml_elements":["nCombUncertAssessNum","sCombUncertEvaluator","eCombUncertEvalMethod","nCombUncertLevOfConfid"]}}],"NumValues":[{"VariableValue":[],"PropertyValue":[{"tml_elements":["nPropNumber","nPropValue","nPropDigits","CombinedUncertainty"],"nPropNumber":1,"nPropDigits":3,"nPropValue":685,"CombinedUncertainty":{"nCombUncertAssessNum":1,"nCombExpandUncertValue":7,"tml_elements":["nCombUncertAssessNum","nCombExpandUncertValue"]}}],"tml_elements":["PropertyValue"]}],"dateDateAdded":"3/30/2006","nPureOrMixtureDataNumber":8,"sCompiler":"JCE","Component":[{"tml_elements":["RegNum","nSampleNm"],"RegNum":{"tml_elements":["nOrgNum"],"nOrgNum":4},"nSampleNm":1}],"tml_elements":["nPureOrMixtureDataNumber","Component","eExpPurpose","sCompiler","sContributor","dateDateAdded","Property","PhaseID","NumValues"],"PhaseID":[{"ePhase":"Liquid","tml_elements":["ePhase"]},{"ePhase":"Gas","tml_elements":["ePhase"]}],"sContributor":"JCE"},{"eExpPurpose":"Principal objective of the work","Property":[{"ePresentation":"Direct value, X","tml_elements":["nPropNumber","Property-MethodID","PropPhaseID","ePresentation","CombinedUncertainty"],"PropPhaseID":{"ePropPhase":"Liquid","tml_elements":["ePropPhase"]},"nPropNumber":1,"Property-MethodID":{"tml_elements":["PropertyGroup"],"PropertyGroup":{"Criticals":{"ePropName":"Critical pressure, kPa","sMethodName":"pulse heating","tml_elements":["ePropName","sMethodName"]},"tml_elements":["Criticals"]}},"CombinedUncertainty":{"sCombUncertEvaluator":"Data file compiler","nCombUncertAssessNum":1,"eCombUncertEvalMethod":"Propagation of evaluated standard uncertainties","nCombUncertLevOfConfid":95,"tml_elements":["nCombUncertAssessNum","sCombUncertEvaluator","eCombUncertEvalMethod","nCombUncertLevOfConfid"]}}],"NumValues":[{"PropertyValue":[{"tml_elements":["nPropNumber","nPropValue","nPropDigits","CombinedUncertainty"],"nPropDigits":2,"nPropNumber":1,"nPropValue":2800,"CombinedUncertainty":{"nCombExpandUncertValue":160,"tml_elements":["nCombUncertAssessNum","nCombExpandUncertValue"],"nCombUncertAssessNum":1}}],"tml_elements":["PropertyValue"],"VariableValue":[]}],"sCompiler":"JCE","nPureOrMixtureDataNumber":9,"dateDateAdded":"3/30/2006","Component":[{"RegNum":{"nOrgNum":5,"tml_elements":["nOrgNum"]},"nSampleNm":1,"tml_elements":["RegNum","nSampleNm"]}],"PhaseID":[{"ePhase":"Liquid","tml_elements":["ePhase"]},{"tml_elements":["ePhase"],"ePhase":"Gas"}],"tml_elements":["nPureOrMixtureDataNumber","Component","eExpPurpose","sCompiler","sContributor","dateDateAdded","Property","PhaseID","NumValues"],"sContributor":"JCE"},{"eExpPurpose":"Principal objective of the work","Property":[{"PropPhaseID":{"ePropPhase":"Liquid","tml_elements":["ePropPhase"]},"nPropNumber":1,"ePresentation":"Direct value, X","tml_elements":["nPropNumber","Property-MethodID","PropPhaseID","ePresentation","CombinedUncertainty"],"CombinedUncertainty":{"tml_elements":["nCombUncertAssessNum","sCombUncertEvaluator","eCombUncertEvalMethod","nCombUncertLevOfConfid"],"eCombUncertEvalMethod":"Propagation of evaluated standard uncertainties","nCombUncertLevOfConfid":95,"nCombUncertAssessNum":1,"sCombUncertEvaluator":"Data file compiler"},"Property-MethodID":{"PropertyGroup":{"Criticals":{"ePropName":"Critical temperature, K","sMethodName":"pulse heating","tml_elements":["ePropName","sMethodName"]},"tml_elements":["Criticals"]},"tml_elements":["PropertyGroup"]}}],"sCompiler":"JCE","dateDateAdded":"3/30/2006","nPureOrMixtureDataNumber":10,"NumValues":[{"VariableValue":[],"tml_elements":["PropertyValue"],"PropertyValue":[{"CombinedUncertainty":{"nCombUncertAssessNum":1,"tml_elements":["nCombUncertAssessNum","nCombExpandUncertValue"],"nCombExpandUncertValue":7},"nPropValue":712,"tml_elements":["nPropNumber","nPropValue","nPropDigits","CombinedUncertainty"],"nPropDigits":3,"nPropNumber":1}]}],"PhaseID":[{"tml_elements":["ePhase"],"ePhase":"Liquid"},{"tml_elements":["ePhase"],"ePhase":"Gas"}],"tml_elements":["nPureOrMixtureDataNumber","Component","eExpPurpose","sCompiler","sContributor","dateDateAdded","Property","PhaseID","NumValues"],"Component":[{"tml_elements":["RegNum","nSampleNm"],"RegNum":{"nOrgNum":5,"tml_elements":["nOrgNum"]},"nSampleNm":1}],"sContributor":"JCE"},{"sContributor":"JCE","PhaseID":[{"ePhase":"Liquid","tml_elements":["ePhase"]},{"tml_elements":["ePhase"],"ePhase":"Gas"}],"tml_elements":["nPureOrMixtureDataNumber","Component","eExpPurpose","sCompiler","sContributor","dateDateAdded","Property","PhaseID","NumValues"],"Component":[{"tml_elements":["RegNum","nSampleNm"],"nSampleNm":1,"RegNum":{"tml_elements":["nOrgNum"],"nOrgNum":6}}],"sCompiler":"JCE","nPureOrMixtureDataNumber":11,"dateDateAdded":"3/30/2006","NumValues":[{"PropertyValue":[{"tml_elements":["nPropNumber","nPropValue","nPropDigits","CombinedUncertainty"],"nPropNumber":1,"nPropDigits":3,"nPropValue":2630,"CombinedUncertainty":{"nCombExpandUncertValue":140,"tml_elements":["nCombUncertAssessNum","nCombExpandUncertValue"],"nCombUncertAssessNum":1}}],"tml_elements":["PropertyValue"],"VariableValue":[]}],"eExpPurpose":"Principal objective of the work","Property":[{"ePresentation":"Direct value, X","tml_elements":["nPropNumber","Property-MethodID","PropPhaseID","ePresentation","CombinedUncertainty"],"Property-MethodID":{"tml_elements":["PropertyGroup"],"PropertyGroup":{"tml_elements":["Criticals"],"Criticals":{"tml_elements":["ePropName","sMethodName"],"sMethodName":"pulse heating","ePropName":"Critical pressure, kPa"}}},"PropPhaseID":{"tml_elements":["ePropPhase"],"ePropPhase":"Liquid"},"nPropNumber":1,"CombinedUncertainty":{"tml_elements":["nCombUncertAssessNum","sCombUncertEvaluator","eCombUncertEvalMethod","nCombUncertLevOfConfid"],"eCombUncertEvalMethod":"Propagation of evaluated standard uncertainties","nCombUncertLevOfConfid":95,"nCombUncertAssessNum":1,"sCombUncertEvaluator":"Data file compiler"}}]},{"Component":[{"nSampleNm":1,"RegNum":{"tml_elements":["nOrgNum"],"nOrgNum":6},"tml_elements":["RegNum","nSampleNm"]}],"tml_elements":["nPureOrMixtureDataNumber","Component","eExpPurpose","sCompiler","sContributor","dateDateAdded","Property","PhaseID","NumValues"],"PhaseID":[{"tml_elements":["ePhase"],"ePhase":"Liquid"},{"ePhase":"Gas","tml_elements":["ePhase"]}],"sContributor":"JCE","Property":[{"Property-MethodID":{"tml_elements":["PropertyGroup"],"PropertyGroup":{"tml_elements":["Criticals"],"Criticals":{"tml_elements":["ePropName","sMethodName"],"ePropName":"Critical temperature, K","sMethodName":"pulse heating"}}},"CombinedUncertainty":{"sCombUncertEvaluator":"Data file compiler","nCombUncertAssessNum":1,"eCombUncertEvalMethod":"Propagation of evaluated standard uncertainties","nCombUncertLevOfConfid":95,"tml_elements":["nCombUncertAssessNum","sCombUncertEvaluator","eCombUncertEvalMethod","nCombUncertLevOfConfid"]},"nPropNumber":1,"PropPhaseID":{"tml_elements":["ePropPhase"],"ePropPhase":"Liquid"},"tml_elements":["nPropNumber","Property-MethodID","PropPhaseID","ePresentation","CombinedUncertainty"],"ePresentation":"Direct value, X"}],"eExpPurpose":"Principal objective of the work","NumValues":[{"tml_elements":["PropertyValue"],"PropertyValue":[{"nPropValue":726,"CombinedUncertainty":{"tml_elements":["nCombUncertAssessNum","nCombExpandUncertValue"],"nCombExpandUncertValue":7,"nCombUncertAssessNum":1},"tml_elements":["nPropNumber","nPropValue","nPropDigits","CombinedUncertainty"],"nPropDigits":3,"nPropNumber":1}],"VariableValue":[]}],"dateDateAdded":"3/30/2006","nPureOrMixtureDataNumber":12,"sCompiler":"JCE"},{"sCompiler":"JCE","nPureOrMixtureDataNumber":13,"dateDateAdded":"3/30/2006","NumValues":[{"VariableValue":[],"tml_elements":["PropertyValue"],"PropertyValue":[{"nPropValue":2430,"CombinedUncertainty":{"nCombUncertAssessNum":1,"tml_elements":["nCombUncertAssessNum","nCombExpandUncertValue"],"nCombExpandUncertValue":120},"nPropDigits":3,"nPropNumber":1,"tml_elements":["nPropNumber","nPropValue","nPropDigits","CombinedUncertainty"]}]}],"Property":[{"Property-MethodID":{"PropertyGroup":{"tml_elements":["Criticals"],"Criticals":{"tml_elements":["ePropName","sMethodName"],"sMethodName":"pulse heating","ePropName":"Critical pressure, kPa"}},"tml_elements":["PropertyGroup"]},"CombinedUncertainty":{"nCombUncertAssessNum":1,"sCombUncertEvaluator":"Data file compiler","tml_elements":["nCombUncertAssessNum","sCombUncertEvaluator","eCombUncertEvalMethod","nCombUncertLevOfConfid"],"nCombUncertLevOfConfid":95,"eCombUncertEvalMethod":"Propagation of evaluated standard uncertainties"},"PropPhaseID":{"tml_elements":["ePropPhase"],"ePropPhase":"Liquid"},"nPropNumber":1,"ePresentation":"Direct value, X","tml_elements":["nPropNumber","Property-MethodID","PropPhaseID","ePresentation","CombinedUncertainty"]}],"eExpPurpose":"Principal objective of the work","sContributor":"JCE","PhaseID":[{"ePhase":"Liquid","tml_elements":["ePhase"]},{"tml_elements":["ePhase"],"ePhase":"Gas"}],"tml_elements":["nPureOrMixtureDataNumber","Component","eExpPurpose","sCompiler","sContributor","dateDateAdded","Property","PhaseID","NumValues"],"Component":[{"tml_elements":["RegNum","nSampleNm"],"RegNum":{"tml_elements":["nOrgNum"],"nOrgNum":7},"nSampleNm":1}]},{"Property":[{"nPropNumber":1,"Property-MethodID":{"PropertyGroup":{"Criticals":{"ePropName":"Critical temperature, K","sMethodName":"pulse heating","tml_elements":["ePropName","sMethodName"]},"tml_elements":["Criticals"]},"tml_elements":["PropertyGroup"]},"PropPhaseID":{"ePropPhase":"Liquid","tml_elements":["ePropPhase"]},"tml_elements":["nPropNumber","Property-MethodID","PropPhaseID","ePresentation","CombinedUncertainty"],"ePresentation":"Direct value, X","CombinedUncertainty":{"tml_elements":["nCombUncertAssessNum","sCombUncertEvaluator","eCombUncertEvalMethod","nCombUncertLevOfConfid"],"eCombUncertEvalMethod":"Propagation of evaluated standard uncertainties","nCombUncertLevOfConfid":95,"nCombUncertAssessNum":1,"sCombUncertEvaluator":"Data file compiler"}}],"eExpPurpose":"Principal objective of the work","nPureOrMixtureDataNumber":14,"dateDateAdded":"3/30/2006","sCompiler":"JCE","NumValues":[{"VariableValue":[],"tml_elements":["PropertyValue"],"PropertyValue":[{"tml_elements":["nPropNumber","nPropValue","nPropDigits","CombinedUncertainty"],"nPropNumber":1,"nPropDigits":3,"nPropValue":736,"CombinedUncertainty":{"nCombExpandUncertValue":8,"tml_elements":["nCombUncertAssessNum","nCombExpandUncertValue"],"nCombUncertAssessNum":1}}]}],"tml_elements":["nPureOrMixtureDataNumber","Component","eExpPurpose","sCompiler","sContributor","dateDateAdded","Property","PhaseID","NumValues"],"PhaseID":[{"ePhase":"Liquid","tml_elements":["ePhase"]},{"tml_elements":["ePhase"],"ePhase":"Gas"}],"Component":[{"nSampleNm":1,"RegNum":{"tml_elements":["nOrgNum"],"nOrgNum":7},"tml_elements":["RegNum","nSampleNm"]}],"sContributor":"JCE"},{"sContributor":"JCE","Component":[{"nSampleNm":1,"RegNum":{"nOrgNum":8,"tml_elements":["nOrgNum"]},"tml_elements":["RegNum","nSampleNm"]}],"tml_elements":["nPureOrMixtureDataNumber","Component","eExpPurpose","sCompiler","sContributor","dateDateAdded","Property","PhaseID","NumValues"],"PhaseID":[{"ePhase":"Liquid","tml_elements":["ePhase"]},{"tml_elements":["ePhase"],"ePhase":"Gas"}],"NumValues":[{"VariableValue":[],"PropertyValue":[{"nPropDigits":3,"nPropNumber":1,"tml_elements":["nPropNumber","nPropValue","nPropDigits","CombinedUncertainty"],"nPropValue":2010,"CombinedUncertainty":{"tml_elements":["nCombUncertAssessNum","nCombExpandUncertValue"],"nCombExpandUncertValue":120,"nCombUncertAssessNum":1}}],"tml_elements":["PropertyValue"]}],"dateDateAdded":"3/30/2006","nPureOrMixtureDataNumber":15,"sCompiler":"JCE","Property":[{"ePresentation":"Direct value, X","tml_elements":["nPropNumber","Property-MethodID","PropPhaseID","ePresentation","CombinedUncertainty"],"PropPhaseID":{"tml_elements":["ePropPhase"],"ePropPhase":"Liquid"},"Property-MethodID":{"PropertyGroup":{"tml_elements":["Criticals"],"Criticals":{"ePropName":"Critical pressure, kPa","sMethodName":"pulse heating","tml_elements":["ePropName","sMethodName"]}},"tml_elements":["PropertyGroup"]},"nPropNumber":1,"CombinedUncertainty":{"nCombUncertAssessNum":1,"sCombUncertEvaluator":"Data file compiler","tml_elements":["nCombUncertAssessNum","sCombUncertEvaluator","eCombUncertEvalMethod","nCombUncertLevOfConfid"],"nCombUncertLevOfConfid":95,"eCombUncertEvalMethod":"Propagation of evaluated standard uncertainties"}}],"eExpPurpose":"Principal objective of the work"},{"sContributor":"JCE","PhaseID":[{"ePhase":"Liquid","tml_elements":["ePhase"]},{"tml_elements":["ePhase"],"ePhase":"Gas"}],"tml_elements":["nPureOrMixtureDataNumber","Component","eExpPurpose","sCompiler","sContributor","dateDateAdded","Property","PhaseID","NumValues"],"Component":[{"RegNum":{"nOrgNum":8,"tml_elements":["nOrgNum"]},"nSampleNm":1,"tml_elements":["RegNum","nSampleNm"]}],"sCompiler":"JCE","nPureOrMixtureDataNumber":16,"dateDateAdded":"3/30/2006","NumValues":[{"tml_elements":["PropertyValue"],"PropertyValue":[{"nPropValue":767,"CombinedUncertainty":{"nCombExpandUncertValue":8,"tml_elements":["nCombUncertAssessNum","nCombExpandUncertValue"],"nCombUncertAssessNum":1},"nPropDigits":3,"nPropNumber":1,"tml_elements":["nPropNumber","nPropValue","nPropDigits","CombinedUncertainty"]}],"VariableValue":[]}],"Property":[{"tml_elements":["nPropNumber","Property-MethodID","PropPhaseID","ePresentation","CombinedUncertainty"],"ePresentation":"Direct value, X","nPropNumber":1,"PropPhaseID":{"tml_elements":["ePropPhase"],"ePropPhase":"Liquid"},"CombinedUncertainty":{"sCombUncertEvaluator":"Data file compiler","nCombUncertAssessNum":1,"eCombUncertEvalMethod":"Propagation of evaluated standard uncertainties","nCombUncertLevOfConfid":95,"tml_elements":["nCombUncertAssessNum","sCombUncertEvaluator","eCombUncertEvalMethod","nCombUncertLevOfConfid"]},"Property-MethodID":{"tml_elements":["PropertyGroup"],"PropertyGroup":{"Criticals":{"ePropName":"Critical temperature, K","sMethodName":"pulse heating","tml_elements":["ePropName","sMethodName"]},"tml_elements":["Criticals"]}}}],"eExpPurpose":"Principal objective of the work"}],"Version":{"tml_elements":["nVersionMajor","nVersionMinor"],"nVersionMinor":0,"nVersionMajor":2}}