{"Version":{"nVersionMajor":2,"nVersionMinor":0,"tml_elements":["nVersionMajor","nVersionMinor"]},"tml_elements":["Version","Citation","Compound","PureOrMixtureData"],"PureOrMixtureData":[{"NumValues":[{"VariableValue":[{"nVarDigits":5,"tml_elements":["nVarNumber","nVarValue","nVarDigits"],"nVarNumber":1,"nVarValue":298.15}],"tml_elements":["VariableValue","PropertyValue"],"PropertyValue":[{"nPropNumber":1,"nPropDigits":3,"tml_elements":["nPropNumber","nPropValue","nPropDigits","CombinedUncertainty"],"CombinedUncertainty":{"nCombExpandUncertValue":4.6,"tml_elements":["nCombUncertAssessNum","nCombExpandUncertValue"],"nCombUncertAssessNum":1},"nPropValue":61.6}]}],"nPureOrMixtureDataNumber":1,"dateDateAdded":"6/24/2011","sCompiler":"JCE","eExpPurpose":"Principal objective of the work","Property":[{"ePresentation":"Direct value, X","tml_elements":["nPropNumber","Property-MethodID","PropPhaseID","ePresentation","CombinedUncertainty"],"PropPhaseID":{"ePropPhase":"Liquid","tml_elements":["ePropPhase"]},"Property-MethodID":{"PropertyGroup":{"PhaseTransition":{"ePropName":"Molar enthalpy of vaporization or sublimation, kJ/mol","eMethodName":"Correlation gas chromatography","tml_elements":["ePropName","eMethodName"]},"tml_elements":["PhaseTransition"]},"tml_elements":["PropertyGroup"]},"nPropNumber":1,"CombinedUncertainty":{"nCombUncertLevOfConfid":95,"eCombUncertEvalMethod":"Propagation of evaluated standard uncertainties","tml_elements":["nCombUncertAssessNum","sCombUncertEvaluator","eCombUncertEvalMethod","nCombUncertLevOfConfid"],"sCombUncertEvaluator":"Data file compiler","nCombUncertAssessNum":1}}],"sContributor":"JCE","Variable":[{"VariableID":{"VariableType":{"tml_elements":["eTemperature"],"eTemperature":"Temperature, K"},"tml_elements":["VariableType"]},"nVarNumber":1,"VarPhaseID":{"eVarPhase":"Liquid","tml_elements":["eVarPhase"]},"tml_elements":["nVarNumber","VariableID","VarPhaseID"]}],"Component":[{"RegNum":{"tml_elements":["nOrgNum"],"nOrgNum":1},"nSampleNm":1,"tml_elements":["RegNum","nSampleNm"]}],"tml_elements":["nPureOrMixtureDataNumber","Component","eExpPurpose","sCompiler","sContributor","dateDateAdded","Property","PhaseID","Variable","NumValues"],"PhaseID":[{"tml_elements":["ePhase"],"ePhase":"Liquid"},{"tml_elements":["ePhase"],"ePhase":"Gas"}]},{"sCompiler":"GPC","dateDateAdded":"6/24/2011","nPureOrMixtureDataNumber":2,"NumValues":[{"PropertyValue":[{"tml_elements":["nPropNumber","nPropValue","nPropDigits","CombinedUncertainty"],"nPropDigits":3,"nPropNumber":1,"CombinedUncertainty":{"nCombUncertAssessNum":1,"nCombExpandUncertValue":2.9,"tml_elements":["nCombUncertAssessNum","nCombExpandUncertValue"]},"nPropValue":54.7}],"tml_elements":["VariableValue","PropertyValue"],"VariableValue":[{"nVarValue":298.15,"tml_elements":["nVarNumber","nVarValue","nVarDigits"],"nVarDigits":5,"nVarNumber":1}]}],"eExpPurpose":"Principal objective of the work","Property":[{"PropPhaseID":{"ePropPhase":"Liquid","tml_elements":["ePropPhase"]},"nPropNumber":1,"ePresentation":"Direct value, X","tml_elements":["nPropNumber","Property-MethodID","PropPhaseID","ePresentation","CombinedUncertainty"],"Property-MethodID":{"tml_elements":["PropertyGroup"],"PropertyGroup":{"tml_elements":["PhaseTransition"],"PhaseTransition":{"tml_elements":["ePropName","eMethodName"],"eMethodName":"Correlation gas chromatography","ePropName":"Molar enthalpy of vaporization or sublimation, kJ/mol"}}},"CombinedUncertainty":{"tml_elements":["nCombUncertAssessNum","sCombUncertEvaluator","eCombUncertEvalMethod","nCombUncertLevOfConfid"],"nCombUncertLevOfConfid":95,"eCombUncertEvalMethod":"Propagation of evaluated standard uncertainties","nCombUncertAssessNum":1,"sCombUncertEvaluator":"Data file compiler"}}],"Variable":[{"nVarNumber":1,"VarPhaseID":{"eVarPhase":"Liquid","tml_elements":["eVarPhase"]},"tml_elements":["nVarNumber","VariableID","VarPhaseID"],"VariableID":{"VariableType":{"eTemperature":"Temperature, K","tml_elements":["eTemperature"]},"tml_elements":["VariableType"]}}],"Component":[{"nSampleNm":1,"RegNum":{"nOrgNum":2,"tml_elements":["nOrgNum"]},"tml_elements":["RegNum","nSampleNm"]}],"sContributor":"TRC","PhaseID":[{"ePhase":"Liquid","tml_elements":["ePhase"]},{"tml_elements":["ePhase"],"ePhase":"Gas"}],"tml_elements":["nPureOrMixtureDataNumber","Component","eExpPurpose","sCompiler","sContributor","dateDateAdded","Property","PhaseID","Variable","NumValues"]}],"THERMOML_MD5_CHECKSUM":"c9eb79dfd649d8efeecfc503037bb699","Citation":{"TRCRefID":{"yrYrPub":"2005","sAuthor2":"chi","sAuthor1":"umn","tml_elements":["yrYrPub","sAuthor1","sAuthor2","nAuthorn"],"nAuthorn":"0"},"sAbstract":"The enthalpies of formation of pure liquid and gas-phase ethyl 3-oxobutanoate and ethyl Z-3-hydroxy- 2-butenoate are examined in the light of some recent NMR studies on the enthalpy differences between gas-phase enthalpies of the two tautomers. Correlation-gas chromatography experiments are used to evaluate the vaporization enthalpies of the pure tautomers. Values of (61.6 ( 2.2) and (54.7 ( 1.3) kJamol-1 at T ) 298.15 K are measured for pure ethyl 3-oxobutanoate and ethyl Z-3-hydroxy-2-butenoate, respectively. These values can be contrasted to a value of (54.2 ( 1.0) kJamol-1 when the vaporization enthalpy is measured as a mixture of tautomers. The difference is attributed to an endothermic enthalpy of mixing term of (7.1 ( 2.1) kJamol-1, which destabilizes the mixture relative to the pure components. Using the existing liquid-phase enthalpy differences measured by NMR, the endothermic enthalpy of mixing term and the condensed phase enthalpy of formation of the equilibrium mixture, new enthalpies of formation for ethyl 3-oxobutanoate and ethyl Z-3-hydroxy-2-butenoate in both the gas, centsfHdeg m(g) ) (-578.2 ( 3.3), (-593.0 ( 2.7) kJamol-1, respectively, and liquid phases, centsfHdeg m(l) ) (-639.8 ( 2.4), (-647.7 ( 2.4) kJamol-1, respectively, are calculated. A comparison of the difference in gas phase enthalpy of formation of the two tautomers reproduces the enthalpy difference measured previously by gas-phase NMR studies.","sDOI":"10.1021/je050179z","sTitle":"Thermochemistry of Ethyl 3-Oxobutanoate Revisited: Observance of a Non-Zero Enthalpy of Mixing between Tautomers and Its Effects on Enthalpies of Formation","tml_elements":["TRCRefID","eType","eSourceType","sAuthor","sPubName","yrPubYr","dateCit","sTitle","sAbstract","sKeyword","sDOI","sIDNum","sVol","sPage"],"sAuthor":["Umnahanant, P.[Patamaporn]","Chickos, J. S.[James S.]"],"sKeyword":["enthalpy of formation","ethyl 3-oxobutanoate. ethyl Z-3-hydroxy-2-butenoate"],"eSourceType":"Original","sPage":"1720-1726","sVol":"50","eType":"journal","sIDNum":"5","dateCit":"2020-09-29","yrPubYr":"2005","sPubName":"J. Chem. Eng. Data"},"Compound":[{"sFormulaMolec":"C6H10O3","tml_elements":["RegNum","sStandardInChI","sStandardInChIKey","sCommonName","sFormulaMolec","Sample"],"sCommonName":["ethyl 3-oxobutanoate","1-ethoxybutane-1,3-dione","3-oxobutanoic acid ethyl ester","3-oxobutanoic acid, ethyl ester","EAA","acetoacetic acid ethyl ester","acetoacetic acid, ethyl ester","butanoic acid, 3-oxo-, ethyl ester","ethyl 3-ketobutyrate","ethyl 3-oxobutyrate","ethyl acetoacetate","ethyl acetonecarboxylate","ethyl acetylacetate"],"Sample":[{"eSource":"Commercial source","nSampleNm":1,"tml_elements":["nSampleNm","eSource","purity"],"purity":[{"nUnknownPerCentDigits":2,"nUnknownPerCent":98,"nStep":1,"tml_elements":["nStep","nUnknownPerCent","nUnknownPerCentDigits","eAnalMeth"],"eAnalMeth":["Stated by supplier"]}]}],"RegNum":{"nOrgNum":1,"tml_elements":["nOrgNum"]},"sStandardInChI":"InChI=1S/C6H10O3/c1-3-9-6(8)4-5(2)7/h3-4H2,1-2H3","sStandardInChIKey":"XYIBRDXRRQCHLP-UHFFFAOYSA-N"},{"sFormulaMolec":"C6H10O3","sCommonName":["ethyl (Z)-3-hydroxybut-2-enoate","(2Z)-3-hydroxy-2-butenoic acid, ethyl ester"],"Sample":[{"nSampleNm":1,"eSource":"Commercial source","purity":[{"tml_elements":["nStep","nUnknownPerCent","nUnknownPerCentDigits","eAnalMeth"],"nStep":1,"eAnalMeth":["Stated by supplier"],"nUnknownPerCent":98,"nUnknownPerCentDigits":2}],"tml_elements":["nSampleNm","eSource","purity"]}],"tml_elements":["RegNum","sStandardInChI","sStandardInChIKey","sCommonName","sFormulaMolec","Sample"],"RegNum":{"nOrgNum":2,"tml_elements":["nOrgNum"]},"sStandardInChI":"InChI=1S/C6H10O3/c1-3-9-6(8)4-5(2)7/h4,7H,3H2,1-2H3/b5-4-","sStandardInChIKey":"ROBJRQHNPKJRFH-PLNGDYQASA-N"}]}