{"Version":{"nVersionMajor":2,"nVersionMinor":0,"tml_elements":["nVersionMajor","nVersionMinor"]},"THERMOML_MD5_CHECKSUM":"d81d3115787b4f1e5e01f86b7c1f14b7","Citation":{"eSourceType":"Original","sTitle":"Vapor-Liquid Critical Properties of Phenol and (C8 to C10) Phenylalkanols","sDOI":"10.1021/je0604380","sAbstract":"The critical pressures and temperatures of phenol and three phenylalkanols C6H5(CH2)nOH with n = 2 to 4 have  been measured. These substances are thermally unstable at their critical points. The pulse-heating method with  ultralow residence times has been used. Residence times are from (0.03 to 1) ms. The experimental critical properties of phenol and phenylalkanols have been compared with the values calculated using the group-contribution methods  by Constantinou and Gani and by Marrero and Gani.","TRCRefID":{"nAuthorn":"0","tml_elements":["yrYrPub","sAuthor1","sAuthor2","nAuthorn"],"sAuthor2":"pop","sAuthor1":"nik","yrYrPub":"2007"},"sAuthor":["Nikitin, E. D.[Eugene D.]","Popov, A. P.[Alexander P.]","Yatluk, Y. G.[Yuri G.]"],"tml_elements":["TRCRefID","eType","eSourceType","sAuthor","sPubName","yrPubYr","dateCit","sTitle","sAbstract","sDOI","sIDNum","sVol","sPage"],"yrPubYr":"2007","sPubName":"J. Chem. Eng. Data","dateCit":"2020-09-29","sIDNum":"1","sPage":"315-317","sVol":"52","eType":"journal"},"Compound":[{"sFormulaMolec":"C6H6O","tml_elements":["RegNum","sStandardInChI","sStandardInChIKey","sCommonName","sFormulaMolec","Sample"],"sCommonName":["phenol","benzenol","hydroxybenzene","phenyl hydroxide"],"Sample":[{"eSource":"Commercial source","nSampleNm":1,"tml_elements":["nSampleNm","eSource","purity"],"purity":[{"ePurifMethod":["Unspecified"],"nStep":1,"tml_elements":["nStep","ePurifMethod"]},{"eAnalMeth":["Gas chromatography"],"tml_elements":["nStep","nUnknownPerCent","nUnknownPerCentDigits","eAnalMeth"],"nStep":2,"nUnknownPerCent":99.9,"nUnknownPerCentDigits":3}]}],"RegNum":{"tml_elements":["nOrgNum"],"nOrgNum":1},"sStandardInChI":"InChI=1S/C6H6O/c7-6-4-2-1-3-5-6/h1-5,7H","sStandardInChIKey":"ISWSIDIOOBJBQZ-UHFFFAOYSA-N"},{"sFormulaMolec":"C8H10O","tml_elements":["RegNum","sStandardInChI","sStandardInChIKey","sCommonName","sFormulaMolec","Sample"],"Sample":[{"purity":[{"tml_elements":["nStep","ePurifMethod"],"nStep":1,"ePurifMethod":["Unspecified"]},{"nUnknownPerCent":99.9,"nUnknownPerCentDigits":3,"tml_elements":["nStep","nUnknownPerCent","nUnknownPerCentDigits","eAnalMeth"],"nStep":2,"eAnalMeth":["Gas chromatography"]}],"tml_elements":["nSampleNm","eSource","purity"],"eSource":"Commercial source","nSampleNm":1}],"sCommonName":["2-phenylethanol",".beta.-phenylethyl alcohol","benzenethanol","benzyl carbinol","phenethyl alcohol"],"RegNum":{"tml_elements":["nOrgNum"],"nOrgNum":2},"sStandardInChI":"InChI=1S/C8H10O/c9-7-6-8-4-2-1-3-5-8/h1-5,9H,6-7H2","sStandardInChIKey":"WRMNZCZEMHIOCP-UHFFFAOYSA-N"},{"sFormulaMolec":"C9H12O","sStandardInChIKey":"VAJVDSVGBWFCLW-UHFFFAOYSA-N","sCommonName":["3-phenyl-1-propanol","1-propanol, 3-phenyl-","3-phenyl-n-propyl alcohol","3-phenylpropanol","propanol, 3-phenyl-"],"Sample":[{"eSource":"Commercial source","nSampleNm":1,"tml_elements":["nSampleNm","eSource","purity"],"purity":[{"tml_elements":["nStep","ePurifMethod"],"nStep":1,"ePurifMethod":["Unspecified"]},{"nStep":2,"tml_elements":["nStep","nUnknownPerCent","nUnknownPerCentDigits","eAnalMeth"],"eAnalMeth":["Spectroscopy"],"nUnknownPerCentDigits":3,"nUnknownPerCent":99.6}]}],"tml_elements":["RegNum","sStandardInChI","sStandardInChIKey","sCommonName","sFormulaMolec","Sample"],"sStandardInChI":"InChI=1S/C9H12O/c10-8-4-7-9-5-2-1-3-6-9/h1-3,5-6,10H,4,7-8H2","RegNum":{"nOrgNum":3,"tml_elements":["nOrgNum"]}},{"sStandardInChIKey":"LDZLXQFDGRCELX-UHFFFAOYSA-N","RegNum":{"nOrgNum":4,"tml_elements":["nOrgNum"]},"sStandardInChI":"InChI=1S/C10H14O/c11-9-5-4-8-10-6-2-1-3-7-10/h1-3,6-7,11H,4-5,8-9H2","Sample":[{"purity":[{"nStep":1,"tml_elements":["nStep","ePurifMethod"],"ePurifMethod":["Unspecified"]},{"nUnknownPerCentDigits":3,"nUnknownPerCent":99.9,"eAnalMeth":["Gas chromatography"],"nStep":2,"tml_elements":["nStep","nUnknownPerCent","nUnknownPerCentDigits","eAnalMeth"]}],"tml_elements":["nSampleNm","eSource","purity"],"eSource":"Commercial source","nSampleNm":1}],"sCommonName":["4-phenyl-1-butanol","1-butanol, 4-phenyl-"],"tml_elements":["RegNum","sStandardInChI","sStandardInChIKey","sCommonName","sFormulaMolec","Sample"],"sFormulaMolec":"C10H14O"}],"tml_elements":["Version","Citation","Compound","PureOrMixtureData"],"PureOrMixtureData":[{"NumValues":[{"PropertyValue":[{"CombinedUncertainty":{"nCombExpandUncertValue":340,"tml_elements":["nCombUncertAssessNum","nCombExpandUncertValue"],"nCombUncertAssessNum":1},"nPropValue":5670,"tml_elements":["nPropNumber","nPropValue","nPropDigits","CombinedUncertainty"],"nPropDigits":3,"nPropNumber":1}],"tml_elements":["PropertyValue"],"VariableValue":[]}],"sCompiler":"JAB","nPureOrMixtureDataNumber":1,"dateDateAdded":"2/15/2007","Property":[{"ePresentation":"Direct value, X","tml_elements":["nPropNumber","Property-MethodID","PropPhaseID","ePresentation","CombinedUncertainty"],"Property-MethodID":{"PropertyGroup":{"Criticals":{"sMethodName":"pulse heating","ePropName":"Critical pressure, kPa","tml_elements":["ePropName","sMethodName"]},"tml_elements":["Criticals"]},"tml_elements":["PropertyGroup"]},"PropPhaseID":{"ePropPhase":"Liquid","tml_elements":["ePropPhase"]},"nPropNumber":1,"CombinedUncertainty":{"eCombUncertEvalMethod":"Propagation of evaluated standard uncertainties","nCombUncertLevOfConfid":95,"tml_elements":["nCombUncertAssessNum","sCombUncertEvaluator","eCombUncertEvalMethod","nCombUncertLevOfConfid"],"sCombUncertEvaluator":"Data file compiler","nCombUncertAssessNum":1}}],"eExpPurpose":"Principal objective of the work","sContributor":"TRC","Component":[{"tml_elements":["RegNum","nSampleNm"],"RegNum":{"tml_elements":["nOrgNum"],"nOrgNum":1},"nSampleNm":1}],"PhaseID":[{"tml_elements":["ePhase"],"ePhase":"Liquid"},{"ePhase":"Gas","tml_elements":["ePhase"]}],"tml_elements":["nPureOrMixtureDataNumber","Component","eExpPurpose","sCompiler","sContributor","dateDateAdded","Property","PhaseID","NumValues"]},{"NumValues":[{"VariableValue":[],"tml_elements":["PropertyValue"],"PropertyValue":[{"nPropValue":695,"CombinedUncertainty":{"nCombUncertAssessNum":1,"nCombExpandUncertValue":14,"tml_elements":["nCombUncertAssessNum","nCombExpandUncertValue"]},"nPropNumber":1,"nPropDigits":3,"tml_elements":["nPropNumber","nPropValue","nPropDigits","CombinedUncertainty"]}]}],"dateDateAdded":"2/15/2007","nPureOrMixtureDataNumber":2,"sCompiler":"JAB","Property":[{"CombinedUncertainty":{"eCombUncertEvalMethod":"Propagation of evaluated standard uncertainties","nCombUncertLevOfConfid":95,"tml_elements":["nCombUncertAssessNum","sCombUncertEvaluator","eCombUncertEvalMethod","nCombUncertLevOfConfid"],"sCombUncertEvaluator":"Data file compiler","nCombUncertAssessNum":1},"tml_elements":["nPropNumber","Property-MethodID","PropPhaseID","ePresentation","CombinedUncertainty"],"ePresentation":"Direct value, X","nPropNumber":1,"PropPhaseID":{"ePropPhase":"Liquid","tml_elements":["ePropPhase"]},"Property-MethodID":{"PropertyGroup":{"tml_elements":["Criticals"],"Criticals":{"ePropName":"Critical temperature, K","sMethodName":"pulse-heating method","tml_elements":["ePropName","sMethodName"]}},"tml_elements":["PropertyGroup"]}}],"eExpPurpose":"Principal objective of the work","sContributor":"TRC","Component":[{"nSampleNm":1,"RegNum":{"nOrgNum":1,"tml_elements":["nOrgNum"]},"tml_elements":["RegNum","nSampleNm"]}],"tml_elements":["nPureOrMixtureDataNumber","Component","eExpPurpose","sCompiler","sContributor","dateDateAdded","Property","PhaseID","NumValues"],"PhaseID":[{"ePhase":"Liquid","tml_elements":["ePhase"]},{"ePhase":"Gas","tml_elements":["ePhase"]}]},{"sCompiler":"JAB","dateDateAdded":"2/15/2007","nPureOrMixtureDataNumber":3,"NumValues":[{"VariableValue":[],"PropertyValue":[{"nPropDigits":3,"nPropNumber":1,"tml_elements":["nPropNumber","nPropValue","nPropDigits","CombinedUncertainty"],"nPropValue":3850,"CombinedUncertainty":{"nCombUncertAssessNum":1,"nCombExpandUncertValue":240,"tml_elements":["nCombUncertAssessNum","nCombExpandUncertValue"]}}],"tml_elements":["PropertyValue"]}],"Property":[{"tml_elements":["nPropNumber","Property-MethodID","PropPhaseID","ePresentation","CombinedUncertainty"],"ePresentation":"Direct value, X","nPropNumber":1,"PropPhaseID":{"tml_elements":["ePropPhase"],"ePropPhase":"Liquid"},"CombinedUncertainty":{"tml_elements":["nCombUncertAssessNum","sCombUncertEvaluator","eCombUncertEvalMethod","nCombUncertLevOfConfid"],"nCombUncertLevOfConfid":95,"eCombUncertEvalMethod":"Propagation of evaluated standard uncertainties","nCombUncertAssessNum":1,"sCombUncertEvaluator":"Data file compiler"},"Property-MethodID":{"PropertyGroup":{"tml_elements":["Criticals"],"Criticals":{"tml_elements":["ePropName","sMethodName"],"ePropName":"Critical pressure, kPa","sMethodName":"pulse heating"}},"tml_elements":["PropertyGroup"]}}],"eExpPurpose":"Principal objective of the work","sContributor":"TRC","PhaseID":[{"tml_elements":["ePhase"],"ePhase":"Liquid"},{"tml_elements":["ePhase"],"ePhase":"Gas"}],"tml_elements":["nPureOrMixtureDataNumber","Component","eExpPurpose","sCompiler","sContributor","dateDateAdded","Property","PhaseID","NumValues"],"Component":[{"nSampleNm":1,"RegNum":{"nOrgNum":2,"tml_elements":["nOrgNum"]},"tml_elements":["RegNum","nSampleNm"]}]},{"NumValues":[{"VariableValue":[],"PropertyValue":[{"nPropDigits":2,"nPropNumber":1,"tml_elements":["nPropNumber","nPropValue","nPropDigits","CombinedUncertainty"],"nPropValue":720,"CombinedUncertainty":{"nCombUncertAssessNum":1,"nCombExpandUncertValue":14,"tml_elements":["nCombUncertAssessNum","nCombExpandUncertValue"]}}],"tml_elements":["PropertyValue"]}],"dateDateAdded":"2/15/2007","nPureOrMixtureDataNumber":4,"sCompiler":"JAB","Property":[{"CombinedUncertainty":{"nCombUncertAssessNum":1,"sCombUncertEvaluator":"Data file compiler","tml_elements":["nCombUncertAssessNum","sCombUncertEvaluator","eCombUncertEvalMethod","nCombUncertLevOfConfid"],"nCombUncertLevOfConfid":95,"eCombUncertEvalMethod":"Propagation of evaluated standard uncertainties"},"nPropNumber":1,"Property-MethodID":{"PropertyGroup":{"tml_elements":["Criticals"],"Criticals":{"sMethodName":"pulse-heating method","ePropName":"Critical temperature, K","tml_elements":["ePropName","sMethodName"]}},"tml_elements":["PropertyGroup"]},"PropPhaseID":{"ePropPhase":"Liquid","tml_elements":["ePropPhase"]},"tml_elements":["nPropNumber","Property-MethodID","PropPhaseID","ePresentation","CombinedUncertainty"],"ePresentation":"Direct value, X"}],"eExpPurpose":"Principal objective of the work","sContributor":"TRC","Component":[{"tml_elements":["RegNum","nSampleNm"],"RegNum":{"nOrgNum":2,"tml_elements":["nOrgNum"]},"nSampleNm":1}],"tml_elements":["nPureOrMixtureDataNumber","Component","eExpPurpose","sCompiler","sContributor","dateDateAdded","Property","PhaseID","NumValues"],"PhaseID":[{"tml_elements":["ePhase"],"ePhase":"Liquid"},{"tml_elements":["ePhase"],"ePhase":"Gas"}]},{"eExpPurpose":"Principal objective of the work","Property":[{"PropPhaseID":{"tml_elements":["ePropPhase"],"ePropPhase":"Liquid"},"Property-MethodID":{"tml_elements":["PropertyGroup"],"PropertyGroup":{"Criticals":{"sMethodName":"pulse heating","ePropName":"Critical pressure, kPa","tml_elements":["ePropName","sMethodName"]},"tml_elements":["Criticals"]}},"nPropNumber":1,"ePresentation":"Direct value, X","tml_elements":["nPropNumber","Property-MethodID","PropPhaseID","ePresentation","CombinedUncertainty"],"CombinedUncertainty":{"nCombUncertLevOfConfid":95,"eCombUncertEvalMethod":"Propagation of evaluated standard uncertainties","tml_elements":["nCombUncertAssessNum","sCombUncertEvaluator","eCombUncertEvalMethod","nCombUncertLevOfConfid"],"sCombUncertEvaluator":"Data file compiler","nCombUncertAssessNum":1}}],"sCompiler":"JAB","dateDateAdded":"2/15/2007","nPureOrMixtureDataNumber":5,"NumValues":[{"VariableValue":[],"PropertyValue":[{"CombinedUncertainty":{"nCombUncertAssessNum":1,"tml_elements":["nCombUncertAssessNum","nCombExpandUncertValue"],"nCombExpandUncertValue":200},"nPropValue":3460,"tml_elements":["nPropNumber","nPropValue","nPropDigits","CombinedUncertainty"],"nPropDigits":3,"nPropNumber":1}],"tml_elements":["PropertyValue"]}],"PhaseID":[{"ePhase":"Liquid","tml_elements":["ePhase"]},{"tml_elements":["ePhase"],"ePhase":"Gas"}],"tml_elements":["nPureOrMixtureDataNumber","Component","eExpPurpose","sCompiler","sContributor","dateDateAdded","Property","PhaseID","NumValues"],"Component":[{"RegNum":{"nOrgNum":3,"tml_elements":["nOrgNum"]},"nSampleNm":1,"tml_elements":["RegNum","nSampleNm"]}],"sContributor":"TRC"},{"NumValues":[{"PropertyValue":[{"CombinedUncertainty":{"nCombExpandUncertValue":14,"tml_elements":["nCombUncertAssessNum","nCombExpandUncertValue"],"nCombUncertAssessNum":1},"nPropValue":732,"nPropDigits":3,"nPropNumber":1,"tml_elements":["nPropNumber","nPropValue","nPropDigits","CombinedUncertainty"]}],"tml_elements":["PropertyValue"],"VariableValue":[]}],"nPureOrMixtureDataNumber":6,"dateDateAdded":"2/15/2007","sCompiler":"JAB","eExpPurpose":"Principal objective of the work","Property":[{"CombinedUncertainty":{"tml_elements":["nCombUncertAssessNum","sCombUncertEvaluator","eCombUncertEvalMethod","nCombUncertLevOfConfid"],"eCombUncertEvalMethod":"Propagation of evaluated standard uncertainties","nCombUncertLevOfConfid":95,"nCombUncertAssessNum":1,"sCombUncertEvaluator":"Data file compiler"},"ePresentation":"Direct value, X","tml_elements":["nPropNumber","Property-MethodID","PropPhaseID","ePresentation","CombinedUncertainty"],"Property-MethodID":{"tml_elements":["PropertyGroup"],"PropertyGroup":{"Criticals":{"sMethodName":"pulse-heating method","ePropName":"Critical temperature, K","tml_elements":["ePropName","sMethodName"]},"tml_elements":["Criticals"]}},"PropPhaseID":{"ePropPhase":"Liquid","tml_elements":["ePropPhase"]},"nPropNumber":1}],"sContributor":"TRC","Component":[{"nSampleNm":1,"RegNum":{"tml_elements":["nOrgNum"],"nOrgNum":3},"tml_elements":["RegNum","nSampleNm"]}],"tml_elements":["nPureOrMixtureDataNumber","Component","eExpPurpose","sCompiler","sContributor","dateDateAdded","Property","PhaseID","NumValues"],"PhaseID":[{"ePhase":"Liquid","tml_elements":["ePhase"]},{"ePhase":"Gas","tml_elements":["ePhase"]}]},{"Component":[{"nSampleNm":1,"RegNum":{"tml_elements":["nOrgNum"],"nOrgNum":4},"tml_elements":["RegNum","nSampleNm"]}],"tml_elements":["nPureOrMixtureDataNumber","Component","eExpPurpose","sCompiler","sContributor","dateDateAdded","Property","PhaseID","NumValues"],"PhaseID":[{"tml_elements":["ePhase"],"ePhase":"Liquid"},{"tml_elements":["ePhase"],"ePhase":"Gas"}],"sContributor":"TRC","Property":[{"CombinedUncertainty":{"nCombUncertAssessNum":1,"sCombUncertEvaluator":"Data file compiler","tml_elements":["nCombUncertAssessNum","sCombUncertEvaluator","eCombUncertEvalMethod","nCombUncertLevOfConfid"],"eCombUncertEvalMethod":"Propagation of evaluated standard uncertainties","nCombUncertLevOfConfid":95},"tml_elements":["nPropNumber","Property-MethodID","PropPhaseID","ePresentation","CombinedUncertainty"],"ePresentation":"Direct value, X","nPropNumber":1,"Property-MethodID":{"PropertyGroup":{"tml_elements":["Criticals"],"Criticals":{"tml_elements":["ePropName","sMethodName"],"ePropName":"Critical pressure, kPa","sMethodName":"pulse heating"}},"tml_elements":["PropertyGroup"]},"PropPhaseID":{"tml_elements":["ePropPhase"],"ePropPhase":"Liquid"}}],"eExpPurpose":"Principal objective of the work","NumValues":[{"PropertyValue":[{"nPropValue":3070,"CombinedUncertainty":{"tml_elements":["nCombUncertAssessNum","nCombExpandUncertValue"],"nCombExpandUncertValue":180,"nCombUncertAssessNum":1},"nPropDigits":3,"nPropNumber":1,"tml_elements":["nPropNumber","nPropValue","nPropDigits","CombinedUncertainty"]}],"tml_elements":["PropertyValue"],"VariableValue":[]}],"dateDateAdded":"2/15/2007","nPureOrMixtureDataNumber":7,"sCompiler":"JAB"},{"Property":[{"PropPhaseID":{"tml_elements":["ePropPhase"],"ePropPhase":"Liquid"},"nPropNumber":1,"ePresentation":"Direct value, X","tml_elements":["nPropNumber","Property-MethodID","PropPhaseID","ePresentation","CombinedUncertainty"],"Property-MethodID":{"tml_elements":["PropertyGroup"],"PropertyGroup":{"Criticals":{"tml_elements":["ePropName","sMethodName"],"sMethodName":"pulse-heating method","ePropName":"Critical temperature, K"},"tml_elements":["Criticals"]}},"CombinedUncertainty":{"tml_elements":["nCombUncertAssessNum","sCombUncertEvaluator","eCombUncertEvalMethod","nCombUncertLevOfConfid"],"eCombUncertEvalMethod":"Propagation of evaluated standard uncertainties","nCombUncertLevOfConfid":95,"nCombUncertAssessNum":1,"sCombUncertEvaluator":"Data file compiler"}}],"eExpPurpose":"Principal objective of the work","NumValues":[{"PropertyValue":[{"tml_elements":["nPropNumber","nPropValue","nPropDigits","CombinedUncertainty"],"nPropDigits":3,"nPropNumber":1,"CombinedUncertainty":{"nCombUncertAssessNum":1,"nCombExpandUncertValue":14,"tml_elements":["nCombUncertAssessNum","nCombExpandUncertValue"]},"nPropValue":746}],"tml_elements":["PropertyValue"],"VariableValue":[]}],"nPureOrMixtureDataNumber":8,"dateDateAdded":"2/15/2007","sCompiler":"JAB","Component":[{"tml_elements":["RegNum","nSampleNm"],"RegNum":{"tml_elements":["nOrgNum"],"nOrgNum":4},"nSampleNm":1}],"tml_elements":["nPureOrMixtureDataNumber","Component","eExpPurpose","sCompiler","sContributor","dateDateAdded","Property","PhaseID","NumValues"],"PhaseID":[{"ePhase":"Liquid","tml_elements":["ePhase"]},{"ePhase":"Gas","tml_elements":["ePhase"]}],"sContributor":"TRC"}]}