{"tml_elements":["Version","Citation","Compound","PureOrMixtureData"],"PureOrMixtureData":[{"Property":[{"nPropNumber":1,"PropPhaseID":{"tml_elements":["ePropPhase"],"ePropPhase":"Crystal"},"tml_elements":["nPropNumber","Property-MethodID","PropPhaseID","ePresentation","CombinedUncertainty"],"ePresentation":"Direct value, X","Property-MethodID":{"PropertyGroup":{"VaporPBoilingTAzeotropTandP":{"tml_elements":["ePropName","sMethodName"],"ePropName":"Vapor or sublimation pressure, kPa","sMethodName":"TRANSPIR:UFactor:2"},"tml_elements":["VaporPBoilingTAzeotropTandP"]},"tml_elements":["PropertyGroup"]},"CombinedUncertainty":{"nCombUncertLevOfConfid":95,"eCombUncertEvalMethod":"Propagation of evaluated standard uncertainties","tml_elements":["nCombUncertAssessNum","sCombUncertEvaluator","eCombUncertEvalMethod","nCombUncertLevOfConfid"],"sCombUncertEvaluator":"Data file compiler","nCombUncertAssessNum":1}}],"eExpPurpose":"Principal objective of the work","NumValues":[{"PropertyValue":[{"nPropValue":2.77e-05,"CombinedUncertainty":{"nCombExpandUncertValue":3.2e-06,"tml_elements":["nCombUncertAssessNum","nCombExpandUncertValue"],"nCombUncertAssessNum":1},"tml_elements":["nPropNumber","nPropValue","nPropDigits","CombinedUncertainty"],"nPropDigits":3,"nPropNumber":1}],"tml_elements":["VariableValue","PropertyValue"],"VariableValue":[{"tml_elements":["nVarNumber","nVarValue","nVarDigits"],"nVarDigits":4,"nVarNumber":1,"nVarValue":248.15}]},{"tml_elements":["VariableValue","PropertyValue"],"PropertyValue":[{"nPropDigits":3,"nPropNumber":1,"tml_elements":["nPropNumber","nPropValue","nPropDigits","CombinedUncertainty"],"nPropValue":5.6e-05,"CombinedUncertainty":{"nCombUncertAssessNum":1,"tml_elements":["nCombUncertAssessNum","nCombExpandUncertValue"],"nCombExpandUncertValue":6.1e-06}}],"VariableValue":[{"nVarValue":253.15,"nVarNumber":1,"nVarDigits":4,"tml_elements":["nVarNumber","nVarValue","nVarDigits"]}]},{"PropertyValue":[{"nPropValue":0.000118,"CombinedUncertainty":{"nCombExpandUncertValue":1.3e-05,"tml_elements":["nCombUncertAssessNum","nCombExpandUncertValue"],"nCombUncertAssessNum":1},"tml_elements":["nPropNumber","nPropValue","nPropDigits","CombinedUncertainty"],"nPropDigits":3,"nPropNumber":1}],"tml_elements":["VariableValue","PropertyValue"],"VariableValue":[{"nVarDigits":4,"tml_elements":["nVarNumber","nVarValue","nVarDigits"],"nVarNumber":1,"nVarValue":258.15}]},{"VariableValue":[{"nVarValue":263.15,"nVarNumber":1,"nVarDigits":4,"tml_elements":["nVarNumber","nVarValue","nVarDigits"]}],"PropertyValue":[{"CombinedUncertainty":{"nCombUncertAssessNum":1,"nCombExpandUncertValue":2.5e-05,"tml_elements":["nCombUncertAssessNum","nCombExpandUncertValue"]},"nPropValue":0.000241,"nPropNumber":1,"nPropDigits":3,"tml_elements":["nPropNumber","nPropValue","nPropDigits","CombinedUncertainty"]}],"tml_elements":["VariableValue","PropertyValue"]},{"VariableValue":[{"nVarNumber":1,"tml_elements":["nVarNumber","nVarValue","nVarDigits"],"nVarDigits":4,"nVarValue":268.15}],"PropertyValue":[{"tml_elements":["nPropNumber","nPropValue","nPropDigits","CombinedUncertainty"],"nPropDigits":3,"nPropNumber":1,"nPropValue":0.00049,"CombinedUncertainty":{"tml_elements":["nCombUncertAssessNum","nCombExpandUncertValue"],"nCombExpandUncertValue":5.1e-05,"nCombUncertAssessNum":1}}],"tml_elements":["VariableValue","PropertyValue"]},{"VariableValue":[{"nVarValue":273.15,"tml_elements":["nVarNumber","nVarValue","nVarDigits"],"nVarDigits":5,"nVarNumber":1}],"tml_elements":["VariableValue","PropertyValue"],"PropertyValue":[{"CombinedUncertainty":{"nCombExpandUncertValue":0.000102,"tml_elements":["nCombUncertAssessNum","nCombExpandUncertValue"],"nCombUncertAssessNum":1},"nPropValue":0.000984,"tml_elements":["nPropNumber","nPropValue","nPropDigits","CombinedUncertainty"],"nPropDigits":3,"nPropNumber":1}]},{"tml_elements":["VariableValue","PropertyValue"],"PropertyValue":[{"nPropValue":0.00186,"CombinedUncertainty":{"nCombUncertAssessNum":1,"nCombExpandUncertValue":0.00019,"tml_elements":["nCombUncertAssessNum","nCombExpandUncertValue"]},"tml_elements":["nPropNumber","nPropValue","nPropDigits","CombinedUncertainty"],"nPropNumber":1,"nPropDigits":3}],"VariableValue":[{"nVarDigits":4,"tml_elements":["nVarNumber","nVarValue","nVarDigits"],"nVarNumber":1,"nVarValue":278.15}]},{"PropertyValue":[{"nPropValue":0.00334,"CombinedUncertainty":{"nCombExpandUncertValue":0.00034,"tml_elements":["nCombUncertAssessNum","nCombExpandUncertValue"],"nCombUncertAssessNum":1},"tml_elements":["nPropNumber","nPropValue","nPropDigits","CombinedUncertainty"],"nPropDigits":3,"nPropNumber":1}],"tml_elements":["VariableValue","PropertyValue"],"VariableValue":[{"nVarDigits":4,"tml_elements":["nVarNumber","nVarValue","nVarDigits"],"nVarNumber":1,"nVarValue":283.15}]},{"tml_elements":["VariableValue","PropertyValue"],"PropertyValue":[{"tml_elements":["nPropNumber","nPropValue","nPropDigits","CombinedUncertainty"],"nPropNumber":1,"nPropDigits":3,"nPropValue":0.00481,"CombinedUncertainty":{"nCombUncertAssessNum":1,"tml_elements":["nCombUncertAssessNum","nCombExpandUncertValue"],"nCombExpandUncertValue":0.00049}}],"VariableValue":[{"nVarValue":286.15,"tml_elements":["nVarNumber","nVarValue","nVarDigits"],"nVarDigits":4,"nVarNumber":1}]}],"nPureOrMixtureDataNumber":1,"dateDateAdded":"7/18/2006","sCompiler":"JCE","Component":[{"tml_elements":["RegNum","nSampleNm"],"RegNum":{"tml_elements":["nOrgNum"],"nOrgNum":1},"nSampleNm":1}],"tml_elements":["nPureOrMixtureDataNumber","Component","eExpPurpose","sCompiler","sContributor","dateDateAdded","Property","PhaseID","Variable","NumValues"],"PhaseID":[{"tml_elements":["ePhase"],"ePhase":"Crystal"},{"tml_elements":["ePhase"],"ePhase":"Gas"}],"sContributor":"JCE","Variable":[{"VariableID":{"VariableType":{"tml_elements":["eTemperature"],"eTemperature":"Temperature, K"},"tml_elements":["VariableType"]},"tml_elements":["nVarNumber","VariableID","VarPhaseID"],"nVarNumber":1,"VarPhaseID":{"eVarPhase":"Crystal","tml_elements":["eVarPhase"]}}]},{"NumValues":[{"VariableValue":[{"nVarValue":288.15,"nVarNumber":1,"nVarDigits":4,"tml_elements":["nVarNumber","nVarValue","nVarDigits"]}],"PropertyValue":[{"tml_elements":["nPropNumber","nPropValue","nPropDigits","CombinedUncertainty"],"nPropNumber":1,"nPropDigits":3,"nPropValue":0.00604,"CombinedUncertainty":{"nCombUncertAssessNum":1,"tml_elements":["nCombUncertAssessNum","nCombExpandUncertValue"],"nCombExpandUncertValue":0.00062}}],"tml_elements":["VariableValue","PropertyValue"]},{"VariableValue":[{"nVarValue":293.15,"nVarNumber":1,"nVarDigits":4,"tml_elements":["nVarNumber","nVarValue","nVarDigits"]}],"tml_elements":["VariableValue","PropertyValue"],"PropertyValue":[{"nPropNumber":1,"nPropDigits":3,"tml_elements":["nPropNumber","nPropValue","nPropDigits","CombinedUncertainty"],"nPropValue":0.00912,"CombinedUncertainty":{"nCombUncertAssessNum":1,"tml_elements":["nCombUncertAssessNum","nCombExpandUncertValue"],"nCombExpandUncertValue":0.00092}}]}],"sCompiler":"JCE","nPureOrMixtureDataNumber":2,"dateDateAdded":"7/18/2006","eExpPurpose":"Principal objective of the work","Property":[{"CombinedUncertainty":{"eCombUncertEvalMethod":"Propagation of evaluated standard uncertainties","nCombUncertLevOfConfid":95,"tml_elements":["nCombUncertAssessNum","sCombUncertEvaluator","eCombUncertEvalMethod","nCombUncertLevOfConfid"],"sCombUncertEvaluator":"Data file compiler","nCombUncertAssessNum":1},"tml_elements":["nPropNumber","Property-MethodID","PropPhaseID","ePresentation","CombinedUncertainty"],"ePresentation":"Direct value, X","nPropNumber":1,"PropPhaseID":{"tml_elements":["ePropPhase"],"ePropPhase":"Liquid"},"Property-MethodID":{"PropertyGroup":{"VaporPBoilingTAzeotropTandP":{"ePropName":"Vapor or sublimation pressure, kPa","sMethodName":"TRANSPIR:UFactor:2","tml_elements":["ePropName","sMethodName"]},"tml_elements":["VaporPBoilingTAzeotropTandP"]},"tml_elements":["PropertyGroup"]}}],"Variable":[{"VariableID":{"tml_elements":["VariableType"],"VariableType":{"tml_elements":["eTemperature"],"eTemperature":"Temperature, K"}},"nVarNumber":1,"VarPhaseID":{"tml_elements":["eVarPhase"],"eVarPhase":"Liquid"},"tml_elements":["nVarNumber","VariableID","VarPhaseID"]}],"sContributor":"JCE","Component":[{"tml_elements":["RegNum","nSampleNm"],"nSampleNm":1,"RegNum":{"nOrgNum":1,"tml_elements":["nOrgNum"]}}],"PhaseID":[{"ePhase":"Liquid","tml_elements":["ePhase"]},{"ePhase":"Gas","tml_elements":["ePhase"]}],"tml_elements":["nPureOrMixtureDataNumber","Component","eExpPurpose","sCompiler","sContributor","dateDateAdded","Property","PhaseID","Variable","NumValues"]}],"THERMOML_MD5_CHECKSUM":"c5f83aa3b0cf468ba3d6b0b09a47f282","Citation":{"sPage":"1331-1334","sVol":"51","eType":"journal","dateCit":"2020-09-29","sIDNum":"4","sPubName":"J. Chem. Eng. Data","yrPubYr":"2006","sDOI":"10.1021/je060077o","sTitle":"Vapor Pressure of Solid Bis(2-chloroethyl) Sulfide","TRCRefID":{"yrYrPub":"2006","sAuthor1":"buc","sAuthor2":"bue","tml_elements":["yrYrPub","sAuthor1","sAuthor2","nAuthorn"],"nAuthorn":"0"},"sAbstract":"The vapor pressure of the vesicant chemical warfare agent, bis(2-chloroethyl) sulfide (also known as sulfur mustard or HD), has been measured at T ) (-25 to +20)  C using a modified ASTM vapor saturation methodology. This work represents the initial report of the measured vapor pressure of HD below its melting point, +14.45  C. The data measured for solid-phase HD are consistent with the previously reported enthalpy of fusion and liquid-phase vapor pressure of HD.","sAuthor":["Buchanan, J. H.[James H.]","Buettner, L. C.[Leonard C.]","Tevault, D. E.[David E.]"],"tml_elements":["TRCRefID","eType","eSourceType","sAuthor","sPubName","yrPubYr","dateCit","sTitle","sAbstract","sDOI","sIDNum","sVol","sPage"],"eSourceType":"Original"},"Compound":[{"sFormulaMolec":"C4H8Cl2S","Sample":[{"tml_elements":["nSampleNm","eSource","purity"],"purity":[{"eAnalMeth":["Gas chromatography"],"nStep":1,"nPurityMolDigits":3,"tml_elements":["nStep","nPurityMol","nPurityMolDigits","eAnalMeth"],"nPurityMol":98.5}],"nSampleNm":1,"eSource":"Commercial source"}],"sCommonName":["bis(2-chloroethyl) sulfide","1-chloro-2-(.beta.-chloroethylthio)ethane","2,2'-dichlorodiethyl sulfide","bis(.beta.-chloroethyl) sulfide","ethane, 1,1'-thiobis[2-chloro-","mustard gas","sulfide, bis(2-chloroethyl)"],"tml_elements":["RegNum","sStandardInChI","sStandardInChIKey","sCommonName","sFormulaMolec","Sample"],"sStandardInChI":"InChI=1S/C4H8Cl2S/c5-1-3-7-4-2-6/h1-4H2","RegNum":{"tml_elements":["nOrgNum"],"nOrgNum":1},"sStandardInChIKey":"QKSKPIVNLNLAAV-UHFFFAOYSA-N"}],"Version":{"nVersionMinor":0,"nVersionMajor":2,"tml_elements":["nVersionMajor","nVersionMinor"]}}