{"Citation":{"tml_elements":["TRCRefID","eType","eSourceType","sAuthor","sPubName","yrPubYr","dateCit","sTitle","sAbstract","sDOI","sIDNum","sVol","sPage"],"sAuthor":["Fischer-Drowos, S. G.[Shirley G.]","Betz, L. R.[Linda R.]","DiBussolo, J. M.[Joseph M.]","Miscavige, J. A.[Justin A.]","Madhoun, N. M.[Nisreen M.]"],"TRCRefID":{"yrYrPub":"2007","nAuthorn":"0","tml_elements":["yrYrPub","sAuthor1","sAuthor2","nAuthorn"],"sAuthor1":"fis","sAuthor2":"bet"},"sAbstract":"Two physical properties of the fluorinated carboxylic acid, 2H-hexadecafluoro-2-decenoic acid (C10F16H2O2),  were investigated in this study: melting point and solubility. Melting point data were ascertained on a traditional  melting point apparatus and a differential scanning calorimeter (DSC), while solubility data were obtained using  an LC-MS/MS system. A melting point of 105 ( 1 deg C and an aqueous solubility of 64+-5 ng/uL at ambient temperatures were observed.","sTitle":"Melting Point and Aqueous Solubility Determination of 2H-Hexadecafluoro-2-decenoic Acid (C10F16H2O2)","sDOI":"10.1021/je0603628","eSourceType":"Original","eType":"journal","sVol":"52","sPage":"759-761","sIDNum":"3","dateCit":"2020-09-29","sPubName":"J. Chem. Eng. Data","yrPubYr":"2007"},"Compound":[{"sStandardInChIKey":"WHZXTVOEGZRRJM-UHFFFAOYSA-N","sStandardInChI":"InChI=1S/C10H2F16O2/c11-2(1-3(27)28)4(12,13)5(14,15)6(16,17)7(18,19)8(20,21)9(22,23)10(24,25)26/h1H,(H,27,28)","RegNum":{"tml_elements":["nOrgNum"],"nOrgNum":1},"sFormulaMolec":"C10H2F16O2","Sample":[{"nSampleNm":1,"eSource":"Commercial source","purity":[{"tml_elements":["nStep","ePurifMethod"],"nStep":1,"ePurifMethod":["Crystallization from melt"]}],"tml_elements":["nSampleNm","eSource","purity"]}],"tml_elements":["RegNum","sStandardInChI","sStandardInChIKey","sCommonName","sFormulaMolec","Sample"],"sCommonName":["2H-hexadecafluoro-2-decenoic acid"]},{"sFormulaMolec":"H2O","sCommonName":["water"],"Sample":[{"purity":[{"ePurifMethod":["Chemical reagent treatment","Fractional distillation"],"nStep":1,"tml_elements":["nStep","ePurifMethod","ePurifMethod"]},{"eAnalMeth":["Estimated by the compiler"],"nStep":2,"tml_elements":["nStep","nUnknownPerCent","nUnknownPerCentDigits","eAnalMeth"],"nUnknownPerCentDigits":3,"nUnknownPerCent":99.9}],"tml_elements":["nSampleNm","eSource","purity"],"nSampleNm":1,"eSource":"Commercial source"}],"tml_elements":["RegNum","sStandardInChI","sStandardInChIKey","sCommonName","sFormulaMolec","Sample"],"sStandardInChIKey":"XLYOFNOQVPJJNP-UHFFFAOYSA-N","RegNum":{"nOrgNum":2,"tml_elements":["nOrgNum"]},"sStandardInChI":"InChI=1S/H2O/h1H2"}],"THERMOML_MD5_CHECKSUM":"726670141c04bcea0349d2a2dcd0a97d","PureOrMixtureData":[{"NumValues":[{"VariableValue":[],"PropertyValue":[{"nPropValue":377.15,"CombinedUncertainty":{"nCombExpandUncertValue":2,"tml_elements":["nCombUncertAssessNum","nCombExpandUncertValue"],"nCombUncertAssessNum":1},"nPropNumber":1,"nPropDigits":4,"tml_elements":["nPropNumber","nPropValue","nPropDigits","CombinedUncertainty"]}],"tml_elements":["PropertyValue"]}],"dateDateAdded":"7/2/2007","nPureOrMixtureDataNumber":1,"sCompiler":"BLC","eExpPurpose":"Principal objective of the work","Property":[{"tml_elements":["nPropNumber","Property-MethodID","PropPhaseID","ePresentation","CombinedUncertainty"],"ePresentation":"Direct value, X","nPropNumber":1,"PropPhaseID":{"ePropPhase":"Crystal","tml_elements":["ePropPhase"]},"CombinedUncertainty":{"tml_elements":["nCombUncertAssessNum","sCombUncertEvaluator","eCombUncertEvalMethod","nCombUncertLevOfConfid"],"nCombUncertLevOfConfid":95,"eCombUncertEvalMethod":"Propagation of evaluated standard uncertainties","nCombUncertAssessNum":1,"sCombUncertEvaluator":"Data file compiler"},"Property-MethodID":{"tml_elements":["PropertyGroup"],"PropertyGroup":{"tml_elements":["PhaseTransition"],"PhaseTransition":{"tml_elements":["ePropName","sMethodName"],"ePropName":"Normal melting temperature, K","sMethodName":"VISOBS"}}}}],"sContributor":"TRC","Component":[{"tml_elements":["RegNum","nSampleNm"],"nSampleNm":1,"RegNum":{"tml_elements":["nOrgNum"],"nOrgNum":1}}],"tml_elements":["nPureOrMixtureDataNumber","Component","eExpPurpose","sCompiler","sContributor","dateDateAdded","Property","PhaseID","NumValues"],"PhaseID":[{"tml_elements":["ePhase"],"ePhase":"Crystal"},{"ePhase":"Liquid","tml_elements":["ePhase"]},{"tml_elements":["ePhase"],"ePhase":"Air at 1 atmosphere"}]},{"sContributor":"TRC","tml_elements":["nPureOrMixtureDataNumber","Component","eExpPurpose","sCompiler","sContributor","dateDateAdded","Property","PhaseID","NumValues"],"PhaseID":[{"tml_elements":["ePhase"],"ePhase":"Crystal"},{"ePhase":"Liquid","tml_elements":["ePhase"]},{"tml_elements":["ePhase"],"ePhase":"Air at 1 atmosphere"}],"Component":[{"nSampleNm":1,"RegNum":{"nOrgNum":1,"tml_elements":["nOrgNum"]},"tml_elements":["RegNum","nSampleNm"]}],"nPureOrMixtureDataNumber":2,"dateDateAdded":"7/2/2007","sCompiler":"BLC","NumValues":[{"PropertyValue":[{"tml_elements":["nPropNumber","nPropValue","nPropDigits","CombinedUncertainty"],"nPropDigits":4,"nPropNumber":1,"nPropValue":378.15,"CombinedUncertainty":{"nCombUncertAssessNum":1,"tml_elements":["nCombUncertAssessNum","nCombExpandUncertValue"],"nCombExpandUncertValue":2}}],"tml_elements":["PropertyValue"],"VariableValue":[]}],"Property":[{"Property-MethodID":{"tml_elements":["PropertyGroup"],"PropertyGroup":{"tml_elements":["PhaseTransition"],"PhaseTransition":{"sMethodName":"DTA","ePropName":"Normal melting temperature, K","tml_elements":["ePropName","sMethodName"]}}},"CombinedUncertainty":{"sCombUncertEvaluator":"Data file compiler","nCombUncertAssessNum":1,"eCombUncertEvalMethod":"Propagation of evaluated standard uncertainties","nCombUncertLevOfConfid":95,"tml_elements":["nCombUncertAssessNum","sCombUncertEvaluator","eCombUncertEvalMethod","nCombUncertLevOfConfid"]},"PropPhaseID":{"ePropPhase":"Crystal","tml_elements":["ePropPhase"]},"nPropNumber":1,"ePresentation":"Direct value, X","tml_elements":["nPropNumber","Property-MethodID","PropPhaseID","ePresentation","CombinedUncertainty"]}],"eExpPurpose":"Principal objective of the work"},{"Variable":[{"VariableID":{"tml_elements":["VariableType"],"VariableType":{"tml_elements":["eTemperature"],"eTemperature":"Temperature, K"}},"tml_elements":["nVarNumber","VariableID","VarPhaseID"],"nVarNumber":1,"VarPhaseID":{"tml_elements":["eVarPhase"],"eVarPhase":"Liquid"}},{"nVarNumber":2,"VarPhaseID":{"tml_elements":["eVarPhase"],"eVarPhase":"Liquid"},"tml_elements":["nVarNumber","VariableID","VarPhaseID"],"VariableID":{"tml_elements":["VariableType"],"VariableType":{"tml_elements":["ePressure"],"ePressure":"Pressure, kPa"}}}],"Component":[{"tml_elements":["RegNum","nSampleNm"],"nSampleNm":1,"RegNum":{"tml_elements":["nOrgNum"],"nOrgNum":2}},{"nSampleNm":1,"RegNum":{"tml_elements":["nOrgNum"],"nOrgNum":1},"tml_elements":["RegNum","nSampleNm"]}],"sCompiler":"RDC","dateDateAdded":"7/2/2007","nPureOrMixtureDataNumber":3,"NumValues":[{"tml_elements":["VariableValue","PropertyValue"],"PropertyValue":[{"CombinedUncertainty":{"nCombUncertAssessNum":1,"nCombExpandUncertValue":0.005,"tml_elements":["nCombUncertAssessNum","nCombExpandUncertValue"]},"nPropValue":0.064,"nPropDigits":2,"nPropNumber":1,"tml_elements":["nPropNumber","nPropValue","nPropDigits","CombinedUncertainty"]}],"VariableValue":[{"nVarDigits":3,"tml_elements":["nVarNumber","nVarValue","nVarDigits"],"nVarNumber":1,"nVarValue":295.15},{"nVarNumber":2,"nVarDigits":3,"tml_elements":["nVarNumber","nVarValue","nVarDigits"],"nVarValue":101}]}],"Property":[{"tml_elements":["nPropNumber","Property-MethodID","PropPhaseID","ePresentation","Solvent","CombinedUncertainty"],"ePresentation":"Direct value, X","nPropNumber":1,"PropPhaseID":{"tml_elements":["ePropPhase"],"ePropPhase":"Liquid"},"Property-MethodID":{"PropertyGroup":{"tml_elements":["CompositionAtPhaseEquilibrium"],"CompositionAtPhaseEquilibrium":{"ePropName":"Mass concentration, kg/m3","eMethodName":"Chromatography","tml_elements":["ePropName","eMethodName"]}},"tml_elements":["PropertyGroup"]},"CombinedUncertainty":{"eCombUncertEvalMethod":"Propagation of evaluated standard uncertainties","nCombUncertLevOfConfid":95,"tml_elements":["nCombUncertAssessNum","sCombUncertEvaluator","eCombUncertEvalMethod","nCombUncertLevOfConfid"],"sCombUncertEvaluator":"Data file compiler","nCombUncertAssessNum":1},"Solvent":{"RegNum":[{"nOrgNum":2,"tml_elements":["nOrgNum"]}],"tml_elements":["RegNum"]}}],"eExpPurpose":"Principal objective of the work","sContributor":"XML","PhaseID":[{"ePhase":"Liquid","tml_elements":["ePhase"]},{"RegNum":{"nOrgNum":1,"tml_elements":["nOrgNum"]},"tml_elements":["ePhase","RegNum"],"ePhase":"Crystal"}],"tml_elements":["nPureOrMixtureDataNumber","Component","eExpPurpose","sCompiler","sContributor","dateDateAdded","Property","PhaseID","Variable","NumValues"]}],"tml_elements":["Version","Citation","Compound","PureOrMixtureData"],"Version":{"nVersionMinor":0,"nVersionMajor":2,"tml_elements":["nVersionMajor","nVersionMinor"]}}