<?xml version="1.0" encoding="UTF-8"?>
<!-- Generated by the NIST, Thermodynamics Research Center (http://www.trc.nist.gov) -->
<DataReport xmlns="http://www.iupac.org/namespaces/ThermoML"
            xmlns:xsi="http://www.w3.org/2001/XMLSchema-instance"
            xsi:schemaLocation="http://www.iupac.org/namespaces/ThermoML http://trc.nist.gov/ThermoML.xsd">
  <Version>
    <nVersionMajor>2</nVersionMajor>
    <nVersionMinor>0</nVersionMinor>
  </Version>
  <Citation>
    <TRCRefID>
      <yrYrPub>2011</yrYrPub>
      <sAuthor1>ton</sAuthor1>
      <sAuthor2>liu</sAuthor2>
      <nAuthorn>0</nAuthorn>
    </TRCRefID>
    <eType>journal</eType>
    <eSourceType>Original</eSourceType>
    <sAuthor>Tong, J.[Jing]</sAuthor>
    <sAuthor>Liu, Q.-S.[Qing-Shan]</sAuthor>
    <sAuthor>Wang, P.-P.[Pan-Pan]</sAuthor>
    <sAuthor>Welz-Biermann, U.[Urs]</sAuthor>
    <sAuthor>Yang, J. -Z.[Jia-Zhen]</sAuthor>
    <sPubName>J. Chem. Eng. Data</sPubName>
    <yrPubYr>2011</yrPubYr>
    <dateCit>2020-09-29</dateCit>
    <sTitle>Surface Tension and Density of Ionic Liquid n-Butylpyridinium Heptachlorodialuminate</sTitle>
    <sAbstract>An ionic liquid (IL), [C4Py][Al2Cl7] (n-butylpyridinium heptachlorodialuminate), was prepared, and its density and surface tension were measured under dry argon in the temperature range from (298.15 to 333.15) K. The experimental data showed that the Eotvos equation was applicable to the IL and the experimental parachor value was larger than that calculated from neutral parachor contribution which did not consider the Coulomb interaction in IL. In terms of Glasser's theory, the molar entropy, S0, and the lattice energy, UPOT, were estimated. Using Kabo's method the molar enthalpy of vaporization ?lgHm0 (298 K) and using the interstice model the thermal expansion coefficient, ?, for [C4Py][Al2Cl7] were predicted, respectively.</sAbstract>
    <sDOI>10.1021/je200471w</sDOI>
    <sIDNum>10</sIDNum>
    <sVol>56</sVol>
    <sPage>3722-3724</sPage>
  </Citation>
  <Compound>
    <RegNum>
      <nOrgNum>1</nOrgNum>
    </RegNum>
    <sStandardInChI>InChI=1S/C9H14N.2Al.6ClH.Cl/c1-2-3-7-10-8-5-4-6-9-10;;;;;;;;;/h4-6,8-9H,2-3,7H2,1H3;;;6*1H;/q+1;2*+2;;;;;;;+1/p-6</sStandardInChI>
    <sStandardInChIKey>RYOBMUPCQRJRKT-UHFFFAOYSA-H</sStandardInChIKey>
    <sCommonName>N-butylpyridinium heptachlorodialuminate</sCommonName>
    <sFormulaMolec>C9H14Al2Cl7N</sFormulaMolec>
    <Sample>
      <nSampleNm>1</nSampleNm>
      <eSource>Synthesized by the authors</eSource>
      <purity>
        <nStep>1</nStep>
        <nPurityMass>98</nPurityMass>
        <nPurityMassDigits>2</nPurityMassDigits>
        <eAnalMeth>NMR (proton)</eAnalMeth>
      </purity>
    </Sample>
  </Compound>
  <PureOrMixtureData>
    <nPureOrMixtureDataNumber>1</nPureOrMixtureDataNumber>
    <Component>
      <RegNum>
        <nOrgNum>1</nOrgNum>
      </RegNum>
      <nSampleNm>1</nSampleNm>
    </Component>
    <eExpPurpose>Principal objective of the work</eExpPurpose>
    <sCompiler>PW</sCompiler>
    <sContributor>TRC</sContributor>
    <dateDateAdded>10/11/2011</dateDateAdded>
    <Property>
      <nPropNumber>1</nPropNumber>
      <Property-MethodID>
        <PropertyGroup>
          <RefractionSurfaceTensionSoundSpeed>
            <ePropName>Surface tension liquid-gas, N/m</ePropName>
            <eMethodName>Maximal bubble pressure</eMethodName>
          </RefractionSurfaceTensionSoundSpeed>
        </PropertyGroup>
      </Property-MethodID>
      <PropPhaseID>
        <ePropPhase>Liquid</ePropPhase>
      </PropPhaseID>
      <ePresentation>Direct value, X</ePresentation>
      <CombinedUncertainty>
        <nCombUncertAssessNum>1</nCombUncertAssessNum>
        <sCombUncertEvaluator>Data file compiler</sCombUncertEvaluator>
        <eCombUncertEvalMethod>Propagation of evaluated standard uncertainties</eCombUncertEvalMethod>
        <nCombUncertLevOfConfid>95</nCombUncertLevOfConfid>
      </CombinedUncertainty>
    </Property>
    <PhaseID>
      <ePhase>Liquid</ePhase>
    </PhaseID>
    <PhaseID>
      <ePhase>Gas</ePhase>
    </PhaseID>
    <Variable>
      <nVarNumber>1</nVarNumber>
      <VariableID>
        <VariableType>
          <eTemperature>Temperature, K</eTemperature>
        </VariableType>
      </VariableID>
      <VarPhaseID>
        <eVarPhase>Liquid</eVarPhase>
      </VarPhaseID>
    </Variable>
    <NumValues>
      <VariableValue>
        <nVarNumber>1</nVarNumber>
        <nVarValue>298.15</nVarValue>
        <nVarDigits>5</nVarDigits>
      </VariableValue>
      <PropertyValue>
        <nPropNumber>1</nPropNumber>
        <nPropValue>0.0403</nPropValue>
        <nPropDigits>3</nPropDigits>
        <CombinedUncertainty>
          <nCombUncertAssessNum>1</nCombUncertAssessNum>
          <nCombExpandUncertValue>0.0006</nCombExpandUncertValue>
        </CombinedUncertainty>
      </PropertyValue>
    </NumValues>
    <NumValues>
      <VariableValue>
        <nVarNumber>1</nVarNumber>
        <nVarValue>303.15</nVarValue>
        <nVarDigits>5</nVarDigits>
      </VariableValue>
      <PropertyValue>
        <nPropNumber>1</nPropNumber>
        <nPropValue>0.0401</nPropValue>
        <nPropDigits>3</nPropDigits>
        <CombinedUncertainty>
          <nCombUncertAssessNum>1</nCombUncertAssessNum>
          <nCombExpandUncertValue>0.0006</nCombExpandUncertValue>
        </CombinedUncertainty>
      </PropertyValue>
    </NumValues>
    <NumValues>
      <VariableValue>
        <nVarNumber>1</nVarNumber>
        <nVarValue>308.15</nVarValue>
        <nVarDigits>5</nVarDigits>
      </VariableValue>
      <PropertyValue>
        <nPropNumber>1</nPropNumber>
        <nPropValue>0.0399</nPropValue>
        <nPropDigits>3</nPropDigits>
        <CombinedUncertainty>
          <nCombUncertAssessNum>1</nCombUncertAssessNum>
          <nCombExpandUncertValue>0.0006</nCombExpandUncertValue>
        </CombinedUncertainty>
      </PropertyValue>
    </NumValues>
    <NumValues>
      <VariableValue>
        <nVarNumber>1</nVarNumber>
        <nVarValue>313.15</nVarValue>
        <nVarDigits>5</nVarDigits>
      </VariableValue>
      <PropertyValue>
        <nPropNumber>1</nPropNumber>
        <nPropValue>0.0396</nPropValue>
        <nPropDigits>3</nPropDigits>
        <CombinedUncertainty>
          <nCombUncertAssessNum>1</nCombUncertAssessNum>
          <nCombExpandUncertValue>0.0006</nCombExpandUncertValue>
        </CombinedUncertainty>
      </PropertyValue>
    </NumValues>
    <NumValues>
      <VariableValue>
        <nVarNumber>1</nVarNumber>
        <nVarValue>318.15</nVarValue>
        <nVarDigits>5</nVarDigits>
      </VariableValue>
      <PropertyValue>
        <nPropNumber>1</nPropNumber>
        <nPropValue>0.0392</nPropValue>
        <nPropDigits>3</nPropDigits>
        <CombinedUncertainty>
          <nCombUncertAssessNum>1</nCombUncertAssessNum>
          <nCombExpandUncertValue>0.0006</nCombExpandUncertValue>
        </CombinedUncertainty>
      </PropertyValue>
    </NumValues>
    <NumValues>
      <VariableValue>
        <nVarNumber>1</nVarNumber>
        <nVarValue>323.15</nVarValue>
        <nVarDigits>5</nVarDigits>
      </VariableValue>
      <PropertyValue>
        <nPropNumber>1</nPropNumber>
        <nPropValue>0.0389</nPropValue>
        <nPropDigits>3</nPropDigits>
        <CombinedUncertainty>
          <nCombUncertAssessNum>1</nCombUncertAssessNum>
          <nCombExpandUncertValue>0.0006</nCombExpandUncertValue>
        </CombinedUncertainty>
      </PropertyValue>
    </NumValues>
    <NumValues>
      <VariableValue>
        <nVarNumber>1</nVarNumber>
        <nVarValue>328.15</nVarValue>
        <nVarDigits>5</nVarDigits>
      </VariableValue>
      <PropertyValue>
        <nPropNumber>1</nPropNumber>
        <nPropValue>0.0385</nPropValue>
        <nPropDigits>3</nPropDigits>
        <CombinedUncertainty>
          <nCombUncertAssessNum>1</nCombUncertAssessNum>
          <nCombExpandUncertValue>0.0006</nCombExpandUncertValue>
        </CombinedUncertainty>
      </PropertyValue>
    </NumValues>
    <NumValues>
      <VariableValue>
        <nVarNumber>1</nVarNumber>
        <nVarValue>333.15</nVarValue>
        <nVarDigits>5</nVarDigits>
      </VariableValue>
      <PropertyValue>
        <nPropNumber>1</nPropNumber>
        <nPropValue>0.0382</nPropValue>
        <nPropDigits>3</nPropDigits>
        <CombinedUncertainty>
          <nCombUncertAssessNum>1</nCombUncertAssessNum>
          <nCombExpandUncertValue>0.0006</nCombExpandUncertValue>
        </CombinedUncertainty>
      </PropertyValue>
    </NumValues>
  </PureOrMixtureData>
  <PureOrMixtureData>
    <nPureOrMixtureDataNumber>2</nPureOrMixtureDataNumber>
    <Component>
      <RegNum>
        <nOrgNum>1</nOrgNum>
      </RegNum>
      <nSampleNm>1</nSampleNm>
    </Component>
    <eExpPurpose>Principal objective of the work</eExpPurpose>
    <sCompiler>PW</sCompiler>
    <sContributor>TRC</sContributor>
    <dateDateAdded>10/11/2011</dateDateAdded>
    <Property>
      <nPropNumber>1</nPropNumber>
      <Property-MethodID>
        <PropertyGroup>
          <VolumetricProp>
            <ePropName>Mass density, kg/m3</ePropName>
            <eMethodName>Vibrating tube method</eMethodName>
          </VolumetricProp>
        </PropertyGroup>
      </Property-MethodID>
      <PropPhaseID>
        <ePropPhase>Liquid</ePropPhase>
      </PropPhaseID>
      <ePresentation>Direct value, X</ePresentation>
      <CombinedUncertainty>
        <nCombUncertAssessNum>1</nCombUncertAssessNum>
        <sCombUncertEvaluator>Data file compiler</sCombUncertEvaluator>
        <eCombUncertEvalMethod>Propagation of evaluated standard uncertainties</eCombUncertEvalMethod>
        <nCombUncertLevOfConfid>95</nCombUncertLevOfConfid>
      </CombinedUncertainty>
    </Property>
    <PhaseID>
      <ePhase>Liquid</ePhase>
    </PhaseID>
    <Constraint>
      <nConstraintNumber>1</nConstraintNumber>
      <ConstraintID>
        <ConstraintType>
          <ePressure>Pressure, kPa</ePressure>
        </ConstraintType>
      </ConstraintID>
      <ConstraintPhaseID>
        <eConstraintPhase>Liquid</eConstraintPhase>
      </ConstraintPhaseID>
      <nConstraintValue>101.325</nConstraintValue>
      <nConstrDigits>6</nConstrDigits>
    </Constraint>
    <Variable>
      <nVarNumber>1</nVarNumber>
      <VariableID>
        <VariableType>
          <eTemperature>Temperature, K</eTemperature>
        </VariableType>
      </VariableID>
      <VarPhaseID>
        <eVarPhase>Liquid</eVarPhase>
      </VarPhaseID>
    </Variable>
    <NumValues>
      <VariableValue>
        <nVarNumber>1</nVarNumber>
        <nVarValue>298.15</nVarValue>
        <nVarDigits>5</nVarDigits>
      </VariableValue>
      <PropertyValue>
        <nPropNumber>1</nPropNumber>
        <nPropValue>1340.66</nPropValue>
        <nPropDigits>6</nPropDigits>
        <CombinedUncertainty>
          <nCombUncertAssessNum>1</nCombUncertAssessNum>
          <nCombExpandUncertValue>1.62</nCombExpandUncertValue>
        </CombinedUncertainty>
      </PropertyValue>
    </NumValues>
    <NumValues>
      <VariableValue>
        <nVarNumber>1</nVarNumber>
        <nVarValue>303.15</nVarValue>
        <nVarDigits>5</nVarDigits>
      </VariableValue>
      <PropertyValue>
        <nPropNumber>1</nPropNumber>
        <nPropValue>1336.22</nPropValue>
        <nPropDigits>6</nPropDigits>
        <CombinedUncertainty>
          <nCombUncertAssessNum>1</nCombUncertAssessNum>
          <nCombExpandUncertValue>1.61</nCombExpandUncertValue>
        </CombinedUncertainty>
      </PropertyValue>
    </NumValues>
    <NumValues>
      <VariableValue>
        <nVarNumber>1</nVarNumber>
        <nVarValue>308.15</nVarValue>
        <nVarDigits>5</nVarDigits>
      </VariableValue>
      <PropertyValue>
        <nPropNumber>1</nPropNumber>
        <nPropValue>1331.79</nPropValue>
        <nPropDigits>6</nPropDigits>
        <CombinedUncertainty>
          <nCombUncertAssessNum>1</nCombUncertAssessNum>
          <nCombExpandUncertValue>1.59</nCombExpandUncertValue>
        </CombinedUncertainty>
      </PropertyValue>
    </NumValues>
    <NumValues>
      <VariableValue>
        <nVarNumber>1</nVarNumber>
        <nVarValue>313.15</nVarValue>
        <nVarDigits>5</nVarDigits>
      </VariableValue>
      <PropertyValue>
        <nPropNumber>1</nPropNumber>
        <nPropValue>1327.38</nPropValue>
        <nPropDigits>6</nPropDigits>
        <CombinedUncertainty>
          <nCombUncertAssessNum>1</nCombUncertAssessNum>
          <nCombExpandUncertValue>1.58</nCombExpandUncertValue>
        </CombinedUncertainty>
      </PropertyValue>
    </NumValues>
    <NumValues>
      <VariableValue>
        <nVarNumber>1</nVarNumber>
        <nVarValue>318.15</nVarValue>
        <nVarDigits>5</nVarDigits>
      </VariableValue>
      <PropertyValue>
        <nPropNumber>1</nPropNumber>
        <nPropValue>1322.9</nPropValue>
        <nPropDigits>6</nPropDigits>
        <CombinedUncertainty>
          <nCombUncertAssessNum>1</nCombUncertAssessNum>
          <nCombExpandUncertValue>1.57</nCombExpandUncertValue>
        </CombinedUncertainty>
      </PropertyValue>
    </NumValues>
    <NumValues>
      <VariableValue>
        <nVarNumber>1</nVarNumber>
        <nVarValue>323.15</nVarValue>
        <nVarDigits>5</nVarDigits>
      </VariableValue>
      <PropertyValue>
        <nPropNumber>1</nPropNumber>
        <nPropValue>1318.3</nPropValue>
        <nPropDigits>6</nPropDigits>
        <CombinedUncertainty>
          <nCombUncertAssessNum>1</nCombUncertAssessNum>
          <nCombExpandUncertValue>1.56</nCombExpandUncertValue>
        </CombinedUncertainty>
      </PropertyValue>
    </NumValues>
    <NumValues>
      <VariableValue>
        <nVarNumber>1</nVarNumber>
        <nVarValue>328.15</nVarValue>
        <nVarDigits>5</nVarDigits>
      </VariableValue>
      <PropertyValue>
        <nPropNumber>1</nPropNumber>
        <nPropValue>1313.7</nPropValue>
        <nPropDigits>6</nPropDigits>
        <CombinedUncertainty>
          <nCombUncertAssessNum>1</nCombUncertAssessNum>
          <nCombExpandUncertValue>1.55</nCombExpandUncertValue>
        </CombinedUncertainty>
      </PropertyValue>
    </NumValues>
    <NumValues>
      <VariableValue>
        <nVarNumber>1</nVarNumber>
        <nVarValue>333.15</nVarValue>
        <nVarDigits>5</nVarDigits>
      </VariableValue>
      <PropertyValue>
        <nPropNumber>1</nPropNumber>
        <nPropValue>1309.6</nPropValue>
        <nPropDigits>6</nPropDigits>
        <CombinedUncertainty>
          <nCombUncertAssessNum>1</nCombUncertAssessNum>
          <nCombExpandUncertValue>1.54</nCombExpandUncertValue>
        </CombinedUncertainty>
      </PropertyValue>
    </NumValues>
  </PureOrMixtureData>
</DataReport>