{"Version":{"tml_elements":["nVersionMajor","nVersionMinor"],"nVersionMinor":0,"nVersionMajor":2},"Citation":{"sPubName":"J. Chem. Eng. Data","yrPubYr":"2010","dateCit":"2020-09-29","sIDNum":"6","sPage":"2169-2172","eType":"journal","sVol":"55","eSourceType":"Original","sAbstract":"The vapor pressures and p?T properties for trans-1,3,3,3-tetrafluoropropene (HFO-1234ze(E)) are measured using a metal-bellows cell. As for the vapor pressure, eight data points are obtained in the temperature range from (310 to 380) K and pressure range from (703 to 3458) kPa. The data of the vapor pressure is correlated by the Wagner type equation with the absolute average deviation of 0.02 %. By extrapolating the vapor-pressure correlation to the critical temperature, the critical pressure is determined to be 3632 kPa. The acentric factor is also determined to be 0.296 by using the vapor-pressure correlation. As for the p?T properties, 26 data points are obtained in the temperature range from (310 to 370) K and pressure range from (2000 to 5000) kPa. The data of the p?T properties are correlated by the Sato equation with the absolute average deviation of 0.04 %. Seven data points of the saturated liquid density are obtained by extrapolating the correlation of the p?T properties to the vapor pressure.","TRCRefID":{"yrYrPub":"2010","nAuthorn":"1","tml_elements":["yrYrPub","sAuthor1","sAuthor2","nAuthorn"],"sAuthor2":"tak","sAuthor1":"tan"},"sTitle":"Measurements of the Vapor Pressures and p?T Properties for trans-1,3,3,3-Tetrafluoropropene (HFO-1234ze(E))","sDOI":"10.1021/je900756g","tml_elements":["TRCRefID","eType","eSourceType","sAuthor","sPubName","yrPubYr","dateCit","sTitle","sAbstract","sDOI","sIDNum","sVol","sPage"],"sAuthor":["Tanaka, K.[Katsuyuki]","Takahashi, G.[Gen]","Higashi, Y.[Yukihiro]"]},"tml_elements":["Version","Citation","Compound","PureOrMixtureData"],"PureOrMixtureData":[{"dateDateAdded":"7/25/2011","nPureOrMixtureDataNumber":1,"sCompiler":"GPC","NumValues":[{"VariableValue":[{"nVarValue":310,"nVarNumber":1,"nVarDigits":6,"tml_elements":["nVarNumber","nVarValue","nVarDigits"]}],"PropertyValue":[{"CombinedUncertainty":{"nCombUncertAssessNum":1,"tml_elements":["nCombUncertAssessNum","nCombExpandUncertValue"],"nCombExpandUncertValue":2},"nPropValue":703,"nPropDigits":3,"nPropNumber":1,"tml_elements":["nPropNumber","nPropValue","nPropDigits","CombinedUncertainty"]}],"tml_elements":["VariableValue","PropertyValue"]},{"PropertyValue":[{"nPropValue":920,"CombinedUncertainty":{"nCombUncertAssessNum":1,"nCombExpandUncertValue":2,"tml_elements":["nCombUncertAssessNum","nCombExpandUncertValue"]},"tml_elements":["nPropNumber","nPropValue","nPropDigits","CombinedUncertainty"],"nPropDigits":2,"nPropNumber":1}],"tml_elements":["VariableValue","PropertyValue"],"VariableValue":[{"nVarDigits":6,"tml_elements":["nVarNumber","nVarValue","nVarDigits"],"nVarNumber":1,"nVarValue":320}]},{"VariableValue":[{"nVarNumber":1,"tml_elements":["nVarNumber","nVarValue","nVarDigits"],"nVarDigits":6,"nVarValue":330}],"PropertyValue":[{"nPropDigits":4,"nPropNumber":1,"tml_elements":["nPropNumber","nPropValue","nPropDigits","CombinedUncertainty"],"CombinedUncertainty":{"nCombUncertAssessNum":1,"nCombExpandUncertValue":3,"tml_elements":["nCombUncertAssessNum","nCombExpandUncertValue"]},"nPropValue":1183}],"tml_elements":["VariableValue","PropertyValue"]},{"VariableValue":[{"nVarValue":340,"nVarDigits":6,"tml_elements":["nVarNumber","nVarValue","nVarDigits"],"nVarNumber":1}],"PropertyValue":[{"CombinedUncertainty":{"nCombUncertAssessNum":1,"tml_elements":["nCombUncertAssessNum","nCombExpandUncertValue"],"nCombExpandUncertValue":3},"nPropValue":1500,"tml_elements":["nPropNumber","nPropValue","nPropDigits","CombinedUncertainty"],"nPropDigits":2,"nPropNumber":1}],"tml_elements":["VariableValue","PropertyValue"]},{"VariableValue":[{"nVarValue":350,"nVarNumber":1,"nVarDigits":6,"tml_elements":["nVarNumber","nVarValue","nVarDigits"]}],"tml_elements":["VariableValue","PropertyValue"],"PropertyValue":[{"nPropValue":1876,"CombinedUncertainty":{"tml_elements":["nCombUncertAssessNum","nCombExpandUncertValue"],"nCombExpandUncertValue":3,"nCombUncertAssessNum":1},"tml_elements":["nPropNumber","nPropValue","nPropDigits","CombinedUncertainty"],"nPropDigits":4,"nPropNumber":1}]},{"VariableValue":[{"nVarValue":360,"tml_elements":["nVarNumber","nVarValue","nVarDigits"],"nVarDigits":6,"nVarNumber":1}],"tml_elements":["VariableValue","PropertyValue"],"PropertyValue":[{"nPropNumber":1,"nPropDigits":3,"tml_elements":["nPropNumber","nPropValue","nPropDigits","CombinedUncertainty"],"nPropValue":2320,"CombinedUncertainty":{"nCombUncertAssessNum":1,"nCombExpandUncertValue":4,"tml_elements":["nCombUncertAssessNum","nCombExpandUncertValue"]}}]},{"tml_elements":["VariableValue","PropertyValue"],"PropertyValue":[{"nPropValue":2841,"CombinedUncertainty":{"nCombExpandUncertValue":5,"tml_elements":["nCombUncertAssessNum","nCombExpandUncertValue"],"nCombUncertAssessNum":1},"tml_elements":["nPropNumber","nPropValue","nPropDigits","CombinedUncertainty"],"nPropNumber":1,"nPropDigits":4}],"VariableValue":[{"nVarDigits":6,"tml_elements":["nVarNumber","nVarValue","nVarDigits"],"nVarNumber":1,"nVarValue":370}]},{"VariableValue":[{"nVarValue":380,"nVarNumber":1,"tml_elements":["nVarNumber","nVarValue","nVarDigits"],"nVarDigits":6}],"PropertyValue":[{"nPropValue":3458,"CombinedUncertainty":{"nCombExpandUncertValue":5,"tml_elements":["nCombUncertAssessNum","nCombExpandUncertValue"],"nCombUncertAssessNum":1},"tml_elements":["nPropNumber","nPropValue","nPropDigits","CombinedUncertainty"],"nPropNumber":1,"nPropDigits":4}],"tml_elements":["VariableValue","PropertyValue"]}],"eExpPurpose":"Principal objective of the work","Property":[{"CombinedUncertainty":{"nCombUncertLevOfConfid":95,"eCombUncertEvalMethod":"Propagation of evaluated standard uncertainties","tml_elements":["nCombUncertAssessNum","sCombUncertEvaluator","eCombUncertEvalMethod","nCombUncertLevOfConfid"],"sCombUncertEvaluator":"Data file compiler","nCombUncertAssessNum":1},"ePresentation":"Direct value, X","tml_elements":["nPropNumber","Property-MethodID","PropPhaseID","ePresentation","CombinedUncertainty"],"Property-MethodID":{"tml_elements":["PropertyGroup"],"PropertyGroup":{"tml_elements":["VaporPBoilingTAzeotropTandP"],"VaporPBoilingTAzeotropTandP":{"ePropName":"Vapor or sublimation pressure, kPa","sMethodName":"Closed cell (Static) method","tml_elements":["ePropName","sMethodName"]}}},"PropPhaseID":{"ePropPhase":"Liquid","tml_elements":["ePropPhase"]},"nPropNumber":1}],"Variable":[{"nVarNumber":1,"VarPhaseID":{"eVarPhase":"Liquid","tml_elements":["eVarPhase"]},"tml_elements":["nVarNumber","VariableID","VarPhaseID"],"VariableID":{"VariableType":{"tml_elements":["eTemperature"],"eTemperature":"Temperature, K"},"tml_elements":["VariableType"]}}],"Component":[{"tml_elements":["RegNum","nSampleNm"],"RegNum":{"tml_elements":["nOrgNum"],"nOrgNum":1},"nSampleNm":1}],"sContributor":"TRC","tml_elements":["nPureOrMixtureDataNumber","Component","eExpPurpose","sCompiler","sContributor","dateDateAdded","Property","PhaseID","Variable","NumValues"],"PhaseID":[{"tml_elements":["ePhase"],"ePhase":"Liquid"},{"ePhase":"Gas","tml_elements":["ePhase"]}]},{"PhaseID":[{"ePhase":"Liquid","tml_elements":["ePhase"]}],"tml_elements":["nPureOrMixtureDataNumber","Component","eExpPurpose","sCompiler","sContributor","dateDateAdded","Property","PhaseID","Variable","NumValues"],"Component":[{"tml_elements":["RegNum","nSampleNm"],"RegNum":{"tml_elements":["nOrgNum"],"nOrgNum":1},"nSampleNm":1}],"Variable":[{"tml_elements":["nVarNumber","VariableID","VarPhaseID"],"nVarNumber":1,"VarPhaseID":{"tml_elements":["eVarPhase"],"eVarPhase":"Liquid"},"VariableID":{"tml_elements":["VariableType"],"VariableType":{"tml_elements":["eTemperature"],"eTemperature":"Temperature, K"}}},{"VariableID":{"VariableType":{"ePressure":"Pressure, kPa","tml_elements":["ePressure"]},"tml_elements":["VariableType"]},"VarPhaseID":{"eVarPhase":"Liquid","tml_elements":["eVarPhase"]},"nVarNumber":2,"tml_elements":["nVarNumber","VariableID","VarPhaseID"]}],"sContributor":"TRC","Property":[{"Property-MethodID":{"PropertyGroup":{"tml_elements":["VolumetricProp"],"VolumetricProp":{"ePropName":"Mass density, kg/m3","eMethodName":"Bellows volumetry","tml_elements":["ePropName","eMethodName"]}},"tml_elements":["PropertyGroup"]},"CombinedUncertainty":{"eCombUncertEvalMethod":"Propagation of evaluated standard uncertainties","nCombUncertLevOfConfid":95,"tml_elements":["nCombUncertAssessNum","sCombUncertEvaluator","eCombUncertEvalMethod","nCombUncertLevOfConfid"],"sCombUncertEvaluator":"Data file compiler","nCombUncertAssessNum":1},"ePresentation":"Direct value, X","tml_elements":["nPropNumber","Property-MethodID","PropPhaseID","ePresentation","CombinedUncertainty"],"PropPhaseID":{"tml_elements":["ePropPhase"],"ePropPhase":"Liquid"},"nPropNumber":1}],"eExpPurpose":"Principal objective of the work","sCompiler":"GPC","nPureOrMixtureDataNumber":2,"dateDateAdded":"7/25/2011","NumValues":[{"VariableValue":[{"nVarNumber":1,"tml_elements":["nVarNumber","nVarValue","nVarDigits"],"nVarDigits":6,"nVarValue":310},{"nVarDigits":1,"tml_elements":["nVarNumber","nVarValue","nVarDigits"],"nVarNumber":2,"nVarValue":2000}],"PropertyValue":[{"CombinedUncertainty":{"nCombUncertAssessNum":1,"nCombExpandUncertValue":3.4,"tml_elements":["nCombUncertAssessNum","nCombExpandUncertValue"]},"nPropValue":1130.2,"tml_elements":["nPropNumber","nPropValue","nPropDigits","CombinedUncertainty"],"nPropNumber":1,"nPropDigits":5}],"tml_elements":["VariableValue","PropertyValue"]},{"VariableValue":[{"nVarNumber":1,"tml_elements":["nVarNumber","nVarValue","nVarDigits"],"nVarDigits":6,"nVarValue":310},{"nVarValue":3000,"nVarNumber":2,"nVarDigits":1,"tml_elements":["nVarNumber","nVarValue","nVarDigits"]}],"PropertyValue":[{"CombinedUncertainty":{"nCombUncertAssessNum":1,"nCombExpandUncertValue":3.4,"tml_elements":["nCombUncertAssessNum","nCombExpandUncertValue"]},"nPropValue":1136.3,"nPropNumber":1,"nPropDigits":5,"tml_elements":["nPropNumber","nPropValue","nPropDigits","CombinedUncertainty"]}],"tml_elements":["VariableValue","PropertyValue"]},{"VariableValue":[{"nVarValue":310,"nVarNumber":1,"nVarDigits":6,"tml_elements":["nVarNumber","nVarValue","nVarDigits"]},{"nVarDigits":1,"tml_elements":["nVarNumber","nVarValue","nVarDigits"],"nVarNumber":2,"nVarValue":4000}],"PropertyValue":[{"tml_elements":["nPropNumber","nPropValue","nPropDigits","CombinedUncertainty"],"nPropNumber":1,"nPropDigits":5,"nPropValue":1142.1,"CombinedUncertainty":{"nCombUncertAssessNum":1,"nCombExpandUncertValue":3.4,"tml_elements":["nCombUncertAssessNum","nCombExpandUncertValue"]}}],"tml_elements":["VariableValue","PropertyValue"]},{"VariableValue":[{"nVarDigits":6,"tml_elements":["nVarNumber","nVarValue","nVarDigits"],"nVarNumber":1,"nVarValue":310},{"nVarNumber":2,"tml_elements":["nVarNumber","nVarValue","nVarDigits"],"nVarDigits":1,"nVarValue":5000}],"PropertyValue":[{"CombinedUncertainty":{"nCombUncertAssessNum":1,"nCombExpandUncertValue":3.6,"tml_elements":["nCombUncertAssessNum","nCombExpandUncertValue"]},"nPropValue":1147.7,"tml_elements":["nPropNumber","nPropValue","nPropDigits","CombinedUncertainty"],"nPropDigits":5,"nPropNumber":1}],"tml_elements":["VariableValue","PropertyValue"]},{"VariableValue":[{"nVarDigits":6,"tml_elements":["nVarNumber","nVarValue","nVarDigits"],"nVarNumber":1,"nVarValue":320},{"nVarNumber":2,"nVarDigits":1,"tml_elements":["nVarNumber","nVarValue","nVarDigits"],"nVarValue":2000}],"PropertyValue":[{"CombinedUncertainty":{"nCombUncertAssessNum":1,"nCombExpandUncertValue":3.2,"tml_elements":["nCombUncertAssessNum","nCombExpandUncertValue"]},"nPropValue":1093.3,"nPropDigits":5,"nPropNumber":1,"tml_elements":["nPropNumber","nPropValue","nPropDigits","CombinedUncertainty"]}],"tml_elements":["VariableValue","PropertyValue"]},{"VariableValue":[{"nVarValue":320,"tml_elements":["nVarNumber","nVarValue","nVarDigits"],"nVarDigits":6,"nVarNumber":1},{"nVarValue":3000,"tml_elements":["nVarNumber","nVarValue","nVarDigits"],"nVarDigits":1,"nVarNumber":2}],"tml_elements":["VariableValue","PropertyValue"],"PropertyValue":[{"CombinedUncertainty":{"nCombUncertAssessNum":1,"nCombExpandUncertValue":3.2,"tml_elements":["nCombUncertAssessNum","nCombExpandUncertValue"]},"nPropValue":1100.9,"nPropDigits":5,"nPropNumber":1,"tml_elements":["nPropNumber","nPropValue","nPropDigits","CombinedUncertainty"]}]},{"VariableValue":[{"nVarNumber":1,"tml_elements":["nVarNumber","nVarValue","nVarDigits"],"nVarDigits":6,"nVarValue":320},{"tml_elements":["nVarNumber","nVarValue","nVarDigits"],"nVarDigits":1,"nVarNumber":2,"nVarValue":4000}],"PropertyValue":[{"CombinedUncertainty":{"nCombExpandUncertValue":3.2,"tml_elements":["nCombUncertAssessNum","nCombExpandUncertValue"],"nCombUncertAssessNum":1},"nPropValue":1108,"tml_elements":["nPropNumber","nPropValue","nPropDigits","CombinedUncertainty"],"nPropNumber":1,"nPropDigits":5}],"tml_elements":["VariableValue","PropertyValue"]},{"tml_elements":["VariableValue","PropertyValue"],"PropertyValue":[{"tml_elements":["nPropNumber","nPropValue","nPropDigits","CombinedUncertainty"],"nPropDigits":5,"nPropNumber":1,"nPropValue":1114.7,"CombinedUncertainty":{"nCombUncertAssessNum":1,"nCombExpandUncertValue":3.4,"tml_elements":["nCombUncertAssessNum","nCombExpandUncertValue"]}}],"VariableValue":[{"nVarValue":320,"tml_elements":["nVarNumber","nVarValue","nVarDigits"],"nVarDigits":6,"nVarNumber":1},{"nVarValue":5000,"nVarNumber":2,"tml_elements":["nVarNumber","nVarValue","nVarDigits"],"nVarDigits":1}]},{"VariableValue":[{"nVarValue":330,"nVarNumber":1,"nVarDigits":6,"tml_elements":["nVarNumber","nVarValue","nVarDigits"]},{"tml_elements":["nVarNumber","nVarValue","nVarDigits"],"nVarDigits":1,"nVarNumber":2,"nVarValue":2000}],"PropertyValue":[{"nPropDigits":5,"nPropNumber":1,"tml_elements":["nPropNumber","nPropValue","nPropDigits","CombinedUncertainty"],"CombinedUncertainty":{"nCombUncertAssessNum":1,"nCombExpandUncertValue":3.2,"tml_elements":["nCombUncertAssessNum","nCombExpandUncertValue"]},"nPropValue":1054.2}],"tml_elements":["VariableValue","PropertyValue"]},{"tml_elements":["VariableValue","PropertyValue"],"PropertyValue":[{"CombinedUncertainty":{"nCombUncertAssessNum":1,"tml_elements":["nCombUncertAssessNum","nCombExpandUncertValue"],"nCombExpandUncertValue":3.4},"nPropValue":1063.6,"nPropNumber":1,"nPropDigits":5,"tml_elements":["nPropNumber","nPropValue","nPropDigits","CombinedUncertainty"]}],"VariableValue":[{"nVarNumber":1,"tml_elements":["nVarNumber","nVarValue","nVarDigits"],"nVarDigits":6,"nVarValue":330},{"tml_elements":["nVarNumber","nVarValue","nVarDigits"],"nVarDigits":1,"nVarNumber":2,"nVarValue":3000}]},{"PropertyValue":[{"tml_elements":["nPropNumber","nPropValue","nPropDigits","CombinedUncertainty"],"nPropDigits":5,"nPropNumber":1,"CombinedUncertainty":{"nCombUncertAssessNum":1,"nCombExpandUncertValue":3.4,"tml_elements":["nCombUncertAssessNum","nCombExpandUncertValue"]},"nPropValue":1072.2}],"tml_elements":["VariableValue","PropertyValue"],"VariableValue":[{"nVarValue":330,"nVarNumber":1,"tml_elements":["nVarNumber","nVarValue","nVarDigits"],"nVarDigits":6},{"nVarValue":4000,"nVarDigits":1,"tml_elements":["nVarNumber","nVarValue","nVarDigits"],"nVarNumber":2}]},{"tml_elements":["VariableValue","PropertyValue"],"PropertyValue":[{"nPropValue":1080,"CombinedUncertainty":{"nCombExpandUncertValue":3.4,"tml_elements":["nCombUncertAssessNum","nCombExpandUncertValue"],"nCombUncertAssessNum":1},"nPropDigits":5,"nPropNumber":1,"tml_elements":["nPropNumber","nPropValue","nPropDigits","CombinedUncertainty"]}],"VariableValue":[{"nVarDigits":6,"tml_elements":["nVarNumber","nVarValue","nVarDigits"],"nVarNumber":1,"nVarValue":330},{"nVarValue":5000,"nVarDigits":1,"tml_elements":["nVarNumber","nVarValue","nVarDigits"],"nVarNumber":2}]},{"tml_elements":["VariableValue","PropertyValue"],"PropertyValue":[{"nPropValue":1008.1,"CombinedUncertainty":{"nCombUncertAssessNum":1,"nCombExpandUncertValue":3,"tml_elements":["nCombUncertAssessNum","nCombExpandUncertValue"]},"tml_elements":["nPropNumber","nPropValue","nPropDigits","CombinedUncertainty"],"nPropDigits":5,"nPropNumber":1}],"VariableValue":[{"nVarValue":340,"nVarNumber":1,"nVarDigits":6,"tml_elements":["nVarNumber","nVarValue","nVarDigits"]},{"nVarNumber":2,"nVarDigits":1,"tml_elements":["nVarNumber","nVarValue","nVarDigits"],"nVarValue":2000}]},{"PropertyValue":[{"nPropValue":1021,"CombinedUncertainty":{"tml_elements":["nCombUncertAssessNum","nCombExpandUncertValue"],"nCombExpandUncertValue":3,"nCombUncertAssessNum":1},"tml_elements":["nPropNumber","nPropValue","nPropDigits","CombinedUncertainty"],"nPropDigits":5,"nPropNumber":1}],"tml_elements":["VariableValue","PropertyValue"],"VariableValue":[{"nVarNumber":1,"tml_elements":["nVarNumber","nVarValue","nVarDigits"],"nVarDigits":6,"nVarValue":340},{"nVarDigits":1,"tml_elements":["nVarNumber","nVarValue","nVarDigits"],"nVarNumber":2,"nVarValue":3000}]},{"PropertyValue":[{"nPropNumber":1,"nPropDigits":5,"tml_elements":["nPropNumber","nPropValue","nPropDigits","CombinedUncertainty"],"nPropValue":1032.2,"CombinedUncertainty":{"nCombUncertAssessNum":1,"nCombExpandUncertValue":3.2,"tml_elements":["nCombUncertAssessNum","nCombExpandUncertValue"]}}],"tml_elements":["VariableValue","PropertyValue"],"VariableValue":[{"nVarNumber":1,"tml_elements":["nVarNumber","nVarValue","nVarDigits"],"nVarDigits":6,"nVarValue":340},{"nVarNumber":2,"nVarDigits":1,"tml_elements":["nVarNumber","nVarValue","nVarDigits"],"nVarValue":4000}]},{"tml_elements":["VariableValue","PropertyValue"],"PropertyValue":[{"tml_elements":["nPropNumber","nPropValue","nPropDigits","CombinedUncertainty"],"nPropDigits":5,"nPropNumber":1,"CombinedUncertainty":{"tml_elements":["nCombUncertAssessNum","nCombExpandUncertValue"],"nCombExpandUncertValue":3.2,"nCombUncertAssessNum":1},"nPropValue":1042.4}],"VariableValue":[{"nVarValue":340,"nVarNumber":1,"tml_elements":["nVarNumber","nVarValue","nVarDigits"],"nVarDigits":6},{"nVarValue":5000,"nVarDigits":1,"tml_elements":["nVarNumber","nVarValue","nVarDigits"],"nVarNumber":2}]},{"VariableValue":[{"tml_elements":["nVarNumber","nVarValue","nVarDigits"],"nVarDigits":6,"nVarNumber":1,"nVarValue":350},{"nVarDigits":1,"tml_elements":["nVarNumber","nVarValue","nVarDigits"],"nVarNumber":2,"nVarValue":2000}],"PropertyValue":[{"CombinedUncertainty":{"nCombExpandUncertValue":2.8,"tml_elements":["nCombUncertAssessNum","nCombExpandUncertValue"],"nCombUncertAssessNum":1},"nPropValue":953.6,"nPropNumber":1,"nPropDigits":4,"tml_elements":["nPropNumber","nPropValue","nPropDigits","CombinedUncertainty"]}],"tml_elements":["VariableValue","PropertyValue"]},{"VariableValue":[{"tml_elements":["nVarNumber","nVarValue","nVarDigits"],"nVarDigits":6,"nVarNumber":1,"nVarValue":350},{"nVarValue":3000,"nVarDigits":1,"tml_elements":["nVarNumber","nVarValue","nVarDigits"],"nVarNumber":2}],"PropertyValue":[{"tml_elements":["nPropNumber","nPropValue","nPropDigits","CombinedUncertainty"],"nPropNumber":1,"nPropDigits":4,"CombinedUncertainty":{"nCombExpandUncertValue":3,"tml_elements":["nCombUncertAssessNum","nCombExpandUncertValue"],"nCombUncertAssessNum":1},"nPropValue":972.3}],"tml_elements":["VariableValue","PropertyValue"]},{"VariableValue":[{"nVarValue":350,"nVarNumber":1,"nVarDigits":6,"tml_elements":["nVarNumber","nVarValue","nVarDigits"]},{"nVarValue":4000,"tml_elements":["nVarNumber","nVarValue","nVarDigits"],"nVarDigits":1,"nVarNumber":2}],"PropertyValue":[{"nPropValue":987.6,"CombinedUncertainty":{"nCombUncertAssessNum":1,"nCombExpandUncertValue":3,"tml_elements":["nCombUncertAssessNum","nCombExpandUncertValue"]},"nPropDigits":4,"nPropNumber":1,"tml_elements":["nPropNumber","nPropValue","nPropDigits","CombinedUncertainty"]}],"tml_elements":["VariableValue","PropertyValue"]},{"VariableValue":[{"nVarValue":350,"nVarNumber":1,"tml_elements":["nVarNumber","nVarValue","nVarDigits"],"nVarDigits":6},{"nVarNumber":2,"tml_elements":["nVarNumber","nVarValue","nVarDigits"],"nVarDigits":1,"nVarValue":5000}],"tml_elements":["VariableValue","PropertyValue"],"PropertyValue":[{"tml_elements":["nPropNumber","nPropValue","nPropDigits","CombinedUncertainty"],"nPropDigits":5,"nPropNumber":1,"CombinedUncertainty":{"nCombUncertAssessNum":1,"tml_elements":["nCombUncertAssessNum","nCombExpandUncertValue"],"nCombExpandUncertValue":3.2},"nPropValue":1000.5}]},{"VariableValue":[{"nVarValue":360,"nVarDigits":6,"tml_elements":["nVarNumber","nVarValue","nVarDigits"],"nVarNumber":1},{"nVarValue":3000,"tml_elements":["nVarNumber","nVarValue","nVarDigits"],"nVarDigits":1,"nVarNumber":2}],"PropertyValue":[{"CombinedUncertainty":{"nCombUncertAssessNum":1,"nCombExpandUncertValue":2.6,"tml_elements":["nCombUncertAssessNum","nCombExpandUncertValue"]},"nPropValue":910.5,"nPropNumber":1,"nPropDigits":4,"tml_elements":["nPropNumber","nPropValue","nPropDigits","CombinedUncertainty"]}],"tml_elements":["VariableValue","PropertyValue"]},{"tml_elements":["VariableValue","PropertyValue"],"PropertyValue":[{"CombinedUncertainty":{"nCombUncertAssessNum":1,"nCombExpandUncertValue":2.8,"tml_elements":["nCombUncertAssessNum","nCombExpandUncertValue"]},"nPropValue":934.2,"tml_elements":["nPropNumber","nPropValue","nPropDigits","CombinedUncertainty"],"nPropDigits":4,"nPropNumber":1}],"VariableValue":[{"nVarValue":360,"nVarDigits":6,"tml_elements":["nVarNumber","nVarValue","nVarDigits"],"nVarNumber":1},{"nVarValue":4000,"nVarNumber":2,"nVarDigits":1,"tml_elements":["nVarNumber","nVarValue","nVarDigits"]}]},{"VariableValue":[{"nVarNumber":1,"tml_elements":["nVarNumber","nVarValue","nVarDigits"],"nVarDigits":6,"nVarValue":360},{"nVarDigits":1,"tml_elements":["nVarNumber","nVarValue","nVarDigits"],"nVarNumber":2,"nVarValue":5000}],"PropertyValue":[{"nPropValue":952.9,"CombinedUncertainty":{"nCombUncertAssessNum":1,"nCombExpandUncertValue":2.8,"tml_elements":["nCombUncertAssessNum","nCombExpandUncertValue"]},"nPropDigits":4,"nPropNumber":1,"tml_elements":["nPropNumber","nPropValue","nPropDigits","CombinedUncertainty"]}],"tml_elements":["VariableValue","PropertyValue"]},{"PropertyValue":[{"tml_elements":["nPropNumber","nPropValue","nPropDigits","CombinedUncertainty"],"nPropDigits":4,"nPropNumber":1,"nPropValue":821.5,"CombinedUncertainty":{"tml_elements":["nCombUncertAssessNum","nCombExpandUncertValue"],"nCombExpandUncertValue":2.4,"nCombUncertAssessNum":1}}],"tml_elements":["VariableValue","PropertyValue"],"VariableValue":[{"tml_elements":["nVarNumber","nVarValue","nVarDigits"],"nVarDigits":6,"nVarNumber":1,"nVarValue":370},{"nVarValue":3000,"tml_elements":["nVarNumber","nVarValue","nVarDigits"],"nVarDigits":1,"nVarNumber":2}]},{"tml_elements":["VariableValue","PropertyValue"],"PropertyValue":[{"CombinedUncertainty":{"nCombExpandUncertValue":2.6,"tml_elements":["nCombUncertAssessNum","nCombExpandUncertValue"],"nCombUncertAssessNum":1},"nPropValue":867.6,"nPropNumber":1,"nPropDigits":4,"tml_elements":["nPropNumber","nPropValue","nPropDigits","CombinedUncertainty"]}],"VariableValue":[{"nVarDigits":6,"tml_elements":["nVarNumber","nVarValue","nVarDigits"],"nVarNumber":1,"nVarValue":370},{"nVarValue":4000,"tml_elements":["nVarNumber","nVarValue","nVarDigits"],"nVarDigits":1,"nVarNumber":2}]},{"VariableValue":[{"tml_elements":["nVarNumber","nVarValue","nVarDigits"],"nVarDigits":6,"nVarNumber":1,"nVarValue":370},{"nVarNumber":2,"tml_elements":["nVarNumber","nVarValue","nVarDigits"],"nVarDigits":1,"nVarValue":5000}],"PropertyValue":[{"CombinedUncertainty":{"nCombExpandUncertValue":2.8,"tml_elements":["nCombUncertAssessNum","nCombExpandUncertValue"],"nCombUncertAssessNum":1},"nPropValue":896.7,"tml_elements":["nPropNumber","nPropValue","nPropDigits","CombinedUncertainty"],"nPropNumber":1,"nPropDigits":4}],"tml_elements":["VariableValue","PropertyValue"]}]}],"THERMOML_MD5_CHECKSUM":"18608241794f6f997043ee92fc0c7c9e","Compound":[{"tml_elements":["RegNum","sStandardInChI","sStandardInChIKey","sCommonName","sFormulaMolec","Sample"],"sCommonName":["trans-1,3,3,3-tetrafluoropropene","HFO 1234ze(E)","R-1234ze(E)","trans-HFO 1234ze"],"Sample":[{"eSource":"Commercial source","nSampleNm":1,"purity":[{"nUnknownPerCentDigits":4,"nUnknownPerCent":99.96,"nStep":1,"tml_elements":["nStep","nUnknownPerCent","nUnknownPerCentDigits","eAnalMeth"],"eAnalMeth":["Stated by supplier"]},{"nStep":2,"tml_elements":["nStep","ePurifMethod"],"ePurifMethod":["De-gassed by freezing and melting in vacuum"]}],"tml_elements":["nSampleNm","eSource","purity"]}],"sFormulaMolec":"C3H2F4","RegNum":{"nOrgNum":1,"tml_elements":["nOrgNum"]},"sStandardInChI":"InChI=1S/C3H2F4/c4-2-1-3(5,6)7/h1-2H/b2-1+","sStandardInChIKey":"CDOOAUSHHFGWSA-OWOJBTEDSA-N"}]}