{"Version":{"tml_elements":["nVersionMajor","nVersionMinor"],"nVersionMajor":2,"nVersionMinor":0},"Citation":{"sTitle":"Critical Temperatures and Pressures of Some Tetraalkoxytitaniums","sDOI":"10.1021/je900302n","TRCRefID":{"sAuthor2":"pop","sAuthor1":"nik","tml_elements":["yrYrPub","sAuthor1","sAuthor2","nAuthorn"],"nAuthorn":"0","yrYrPub":"2010"},"sAbstract":"The critical pressures and the critical temperatures of nine tetraalkoxytitaniums, Ti[O(CH2)nH]4 with n = 2 to 10, have been measured. All of the substances studied begin to decompose at temperatures below their critical points. The method of pulse heating applicable to thermally unstable compounds has been used. Residence times were from (0.03 to 0.46) ms, which resulted in little decomposition of the substances during measuring. The contributions of the titanium(IV) atom in the group contribution methods of Constantinou and Gani and Marrero and Gani have been calculated from the experimental data. The critical pressures and temperatures of tetraalkoxytitaniums have been estimated by these methods.","sAuthor":["Nikitin, E. D.[Eugene D.]","Popov, A. P.[Alexander P.]","Yatluk, Y. G.[Yuri G.]","Simakina, V. A.[Viktoria A.]"],"tml_elements":["TRCRefID","eType","eSourceType","sAuthor","sPubName","yrPubYr","dateCit","sTitle","sAbstract","sDOI","sIDNum","sVol","sPage"],"eSourceType":"Original","sPage":"178-183","sVol":"55","eType":"journal","sPubName":"J. Chem. Eng. Data","yrPubYr":"2010","sIDNum":"1","dateCit":"2020-09-29"},"THERMOML_MD5_CHECKSUM":"8d6dbdc5df2bebdb2d12360dbfa4515c","Compound":[{"sFormulaMolec":"C16H36O4Ti","sCommonName":["titanium(IV) butan-1-olate","1-butanol, titanium(4+) salt (4:1)","titanium(4+) tetrabutan-1-olate"],"Sample":[{"purity":[{"nUnknownPerCentDigits":3,"nUnknownPerCent":99.9,"eAnalMeth":["Spectroscopy"],"nStep":1,"tml_elements":["nStep","nUnknownPerCent","nUnknownPerCentDigits","eAnalMeth"]}],"tml_elements":["nSampleNm","eSource","purity"],"nSampleNm":1,"eSource":"Synthesized by the authors"}],"tml_elements":["RegNum","sStandardInChI","sStandardInChIKey","sCommonName","sFormulaMolec","Sample"],"RegNum":{"nOrgNum":1,"tml_elements":["nOrgNum"]},"sStandardInChI":"InChI=1S/4C4H9O.Ti/c4*1-2-3-4-5;/h4*2-4H2,1H3;/q4*-1;+4","sStandardInChIKey":"YHWCPXVTRSHPNY-UHFFFAOYSA-N"},{"sStandardInChIKey":"JMXKSZRRTHPKDL-UHFFFAOYSA-N","RegNum":{"nOrgNum":2,"tml_elements":["nOrgNum"]},"sStandardInChI":"InChI=1S/4C2H5O.Ti/c4*1-2-3;/h4*2H2,1H3;/q4*-1;+4","sFormulaMolec":"C8H20O4Ti","sCommonName":["tetraethoxytitanium"],"tml_elements":["RegNum","sStandardInChI","sStandardInChIKey","sCommonName","sFormulaMolec","Sample"],"Sample":[{"eSource":"Synthesized by the authors","nSampleNm":1,"purity":[{"nStep":1,"tml_elements":["nStep","nUnknownPerCent","nUnknownPerCentDigits","eAnalMeth"],"eAnalMeth":["Spectroscopy"],"nUnknownPerCentDigits":3,"nUnknownPerCent":99.9}],"tml_elements":["nSampleNm","eSource","purity"]}]},{"sFormulaMolec":"C12H28O4Ti","Sample":[{"purity":[{"nUnknownPerCentDigits":3,"nUnknownPerCent":99.8,"eAnalMeth":["Spectroscopy"],"nStep":1,"tml_elements":["nStep","nUnknownPerCent","nUnknownPerCentDigits","eAnalMeth"]}],"tml_elements":["nSampleNm","eSource","purity"],"eSource":"Synthesized by the authors","nSampleNm":1}],"sCommonName":["tetrapropoxytitanium","tetrapropyl titanate"],"tml_elements":["RegNum","sStandardInChI","sStandardInChIKey","sCommonName","sFormulaMolec","Sample"],"sStandardInChIKey":"HKJYVRJHDIPMQB-UHFFFAOYSA-N","sStandardInChI":"InChI=1S/4C3H7O.Ti/c4*1-2-3-4;/h4*2-3H2,1H3;/q4*-1;+4","RegNum":{"nOrgNum":3,"tml_elements":["nOrgNum"]}},{"tml_elements":["RegNum","sStandardInChI","sStandardInChIKey","sCommonName","sFormulaMolec","Sample"],"Sample":[{"tml_elements":["nSampleNm","eSource","purity"],"purity":[{"nStep":1,"tml_elements":["nStep","nUnknownPerCent","nUnknownPerCentDigits","eAnalMeth"],"eAnalMeth":["Spectroscopy"],"nUnknownPerCentDigits":3,"nUnknownPerCent":99.9}],"eSource":"Synthesized by the authors","nSampleNm":1}],"sCommonName":["tetrakis(pentyloxy)titanium"],"sFormulaMolec":"C20H44O4Ti","sStandardInChIKey":"WEMICRSBTLTNGT-UHFFFAOYSA-N","sStandardInChI":"InChI=1S/4C5H11O.Ti/c4*1-2-3-4-5-6;/h4*2-5H2,1H3;/q4*-1;+4","RegNum":{"nOrgNum":4,"tml_elements":["nOrgNum"]}},{"sFormulaMolec":"C24H52O4Ti","tml_elements":["RegNum","sStandardInChI","sStandardInChIKey","sCommonName","sFormulaMolec","Sample"],"Sample":[{"nSampleNm":1,"eSource":"Synthesized by the authors","tml_elements":["nSampleNm","eSource","purity"],"purity":[{"eAnalMeth":["Spectroscopy"],"tml_elements":["nStep","nUnknownPerCent","nUnknownPerCentDigits","eAnalMeth"],"nStep":1,"nUnknownPerCent":99.8,"nUnknownPerCentDigits":3}]}],"sCommonName":["tetrakis(hexyloxy)titanium","tetrahexoxytitanium"],"sStandardInChI":"InChI=1S/4C6H13O.Ti/c4*1-2-3-4-5-6-7;/h4*2-6H2,1H3;/q4*-1;+4","RegNum":{"nOrgNum":5,"tml_elements":["nOrgNum"]},"sStandardInChIKey":"KOARADCEQDEFIO-UHFFFAOYSA-N"},{"sStandardInChIKey":"UHSVYKSYPSBAKN-UHFFFAOYSA-N","sStandardInChI":"InChI=1S/4C7H15O.Ti/c4*1-2-3-4-5-6-7-8;/h4*2-7H2,1H3;/q4*-1;+4","RegNum":{"tml_elements":["nOrgNum"],"nOrgNum":6},"sFormulaMolec":"C28H60O4Ti","Sample":[{"purity":[{"nStep":1,"tml_elements":["nStep","nUnknownPerCent","nUnknownPerCentDigits","eAnalMeth"],"eAnalMeth":["Spectroscopy"],"nUnknownPerCentDigits":3,"nUnknownPerCent":99.7}],"tml_elements":["nSampleNm","eSource","purity"],"eSource":"Synthesized by the authors","nSampleNm":1}],"tml_elements":["RegNum","sStandardInChI","sStandardInChIKey","sCommonName","sFormulaMolec","Sample"],"sCommonName":["tetraheptoxytitanium","tetrakis(heptyloxy)titanium"]},{"Sample":[{"tml_elements":["nSampleNm","eSource","purity"],"purity":[{"eAnalMeth":["Spectroscopy"],"tml_elements":["nStep","nUnknownPerCent","nUnknownPerCentDigits","eAnalMeth"],"nStep":1,"nUnknownPerCent":99.9,"nUnknownPerCentDigits":3}],"nSampleNm":1,"eSource":"Synthesized by the authors"}],"sCommonName":["tetraoctoxytitanium","tetrakis(octyloxy)titanium"],"tml_elements":["RegNum","sStandardInChI","sStandardInChIKey","sCommonName","sFormulaMolec","Sample"],"sFormulaMolec":"C32H68O4Ti","sStandardInChIKey":"KSCKTBJJRVPGKM-UHFFFAOYSA-N","sStandardInChI":"InChI=1S/4C8H17O.Ti/c4*1-2-3-4-5-6-7-8-9;/h4*2-8H2,1H3;/q4*-1;+4","RegNum":{"nOrgNum":7,"tml_elements":["nOrgNum"]}},{"sFormulaMolec":"C36H76O4Ti","Sample":[{"eSource":"Synthesized by the authors","nSampleNm":1,"purity":[{"eAnalMeth":["Spectroscopy"],"nStep":1,"tml_elements":["nStep","nUnknownPerCent","nUnknownPerCentDigits","eAnalMeth"],"nUnknownPerCentDigits":3,"nUnknownPerCent":99.9}],"tml_elements":["nSampleNm","eSource","purity"]}],"sCommonName":["tetranonoxytitanium","tetrakis(nonyloxy)titanium"],"tml_elements":["RegNum","sStandardInChI","sStandardInChIKey","sCommonName","sFormulaMolec","Sample"],"sStandardInChIKey":"AFYFEUSEUHGKGV-UHFFFAOYSA-N","RegNum":{"tml_elements":["nOrgNum"],"nOrgNum":8},"sStandardInChI":"InChI=1S/4C9H19O.Ti/c4*1-2-3-4-5-6-7-8-9-10;/h4*2-9H2,1H3;/q4*-1;+4"},{"sFormulaMolec":"C40H84O4Ti","Sample":[{"eSource":"Synthesized by the authors","nSampleNm":1,"tml_elements":["nSampleNm","eSource","purity"],"purity":[{"eAnalMeth":["Spectroscopy"],"tml_elements":["nStep","nUnknownPerCent","nUnknownPerCentDigits","eAnalMeth"],"nStep":1,"nUnknownPerCent":99.9,"nUnknownPerCentDigits":3}]}],"tml_elements":["RegNum","sStandardInChI","sStandardInChIKey","sCommonName","sFormulaMolec","Sample"],"sCommonName":["tetra(decyloxy)titanium","tetrakis(decyloxy)titanium"],"sStandardInChIKey":"XQNMNCVLVNBXKJ-UHFFFAOYSA-N","RegNum":{"tml_elements":["nOrgNum"],"nOrgNum":9},"sStandardInChI":"InChI=1S/4C10H21O.Ti/c4*1-2-3-4-5-6-7-8-9-10-11;/h4*2-10H2,1H3;/q4*-1;+4"}],"tml_elements":["Version","Citation","Compound","PureOrMixtureData"],"PureOrMixtureData":[{"PhaseID":[{"tml_elements":["ePhase"],"ePhase":"Liquid"},{"tml_elements":["ePhase"],"ePhase":"Gas"}],"tml_elements":["nPureOrMixtureDataNumber","Component","eExpPurpose","sCompiler","sContributor","dateDateAdded","Property","PhaseID","NumValues"],"Component":[{"tml_elements":["RegNum","nSampleNm"],"nSampleNm":1,"RegNum":{"tml_elements":["nOrgNum"],"nOrgNum":1}}],"sContributor":"TRC","eExpPurpose":"Principal objective of the work","Property":[{"PropPhaseID":{"tml_elements":["ePropPhase"],"ePropPhase":"Liquid"},"nPropNumber":1,"ePresentation":"Direct value, X","tml_elements":["nPropNumber","Property-MethodID","PropPhaseID","ePresentation","CombinedUncertainty"],"Property-MethodID":{"tml_elements":["PropertyGroup"],"PropertyGroup":{"Criticals":{"ePropName":"Critical pressure, kPa","sMethodName":"pulse heating","tml_elements":["ePropName","sMethodName"]},"tml_elements":["Criticals"]}},"CombinedUncertainty":{"nCombUncertAssessNum":1,"sCombUncertEvaluator":"Data file compiler","tml_elements":["nCombUncertAssessNum","sCombUncertEvaluator","eCombUncertEvalMethod","nCombUncertLevOfConfid"],"eCombUncertEvalMethod":"Propagation of evaluated standard uncertainties","nCombUncertLevOfConfid":95}}],"sCompiler":"VN","nPureOrMixtureDataNumber":1,"dateDateAdded":"3/27/2009","NumValues":[{"PropertyValue":[{"tml_elements":["nPropNumber","nPropValue","nPropDigits","CombinedUncertainty"],"nPropNumber":1,"nPropDigits":3,"CombinedUncertainty":{"tml_elements":["nCombUncertAssessNum","nCombExpandUncertValue"],"nCombExpandUncertValue":60,"nCombUncertAssessNum":1},"nPropValue":1020}],"tml_elements":["PropertyValue"],"VariableValue":[]}]},{"eExpPurpose":"Principal objective of the work","Property":[{"tml_elements":["nPropNumber","Property-MethodID","PropPhaseID","ePresentation","CombinedUncertainty"],"ePresentation":"Direct value, X","nPropNumber":1,"Property-MethodID":{"tml_elements":["PropertyGroup"],"PropertyGroup":{"tml_elements":["Criticals"],"Criticals":{"sMethodName":"pulse heating","ePropName":"Critical temperature, K","tml_elements":["ePropName","sMethodName"]}}},"PropPhaseID":{"ePropPhase":"Liquid","tml_elements":["ePropPhase"]},"CombinedUncertainty":{"eCombUncertEvalMethod":"Propagation of evaluated standard uncertainties","nCombUncertLevOfConfid":95,"tml_elements":["nCombUncertAssessNum","sCombUncertEvaluator","eCombUncertEvalMethod","nCombUncertLevOfConfid"],"sCombUncertEvaluator":"Data file compiler","nCombUncertAssessNum":1}}],"nPureOrMixtureDataNumber":2,"dateDateAdded":"3/27/2009","sCompiler":"VN","NumValues":[{"PropertyValue":[{"nPropValue":719,"CombinedUncertainty":{"nCombUncertAssessNum":1,"nCombExpandUncertValue":14,"tml_elements":["nCombUncertAssessNum","nCombExpandUncertValue"]},"nPropDigits":3,"nPropNumber":1,"tml_elements":["nPropNumber","nPropValue","nPropDigits","CombinedUncertainty"]}],"tml_elements":["PropertyValue"],"VariableValue":[]}],"tml_elements":["nPureOrMixtureDataNumber","Component","eExpPurpose","sCompiler","sContributor","dateDateAdded","Property","PhaseID","NumValues"],"PhaseID":[{"ePhase":"Liquid","tml_elements":["ePhase"]},{"ePhase":"Gas","tml_elements":["ePhase"]}],"Component":[{"tml_elements":["RegNum","nSampleNm"],"nSampleNm":1,"RegNum":{"nOrgNum":1,"tml_elements":["nOrgNum"]}}],"sContributor":"TRC"},{"NumValues":[{"tml_elements":["PropertyValue"],"PropertyValue":[{"CombinedUncertainty":{"nCombExpandUncertValue":80,"tml_elements":["nCombUncertAssessNum","nCombExpandUncertValue"],"nCombUncertAssessNum":1},"nPropValue":1400,"nPropNumber":1,"nPropDigits":3,"tml_elements":["nPropNumber","nPropValue","nPropDigits","CombinedUncertainty"]}],"VariableValue":[]}],"nPureOrMixtureDataNumber":3,"dateDateAdded":"3/27/2009","sCompiler":"VN","eExpPurpose":"Principal objective of the work","Property":[{"tml_elements":["nPropNumber","Property-MethodID","PropPhaseID","ePresentation","CombinedUncertainty"],"ePresentation":"Direct value, X","nPropNumber":1,"PropPhaseID":{"ePropPhase":"Liquid","tml_elements":["ePropPhase"]},"CombinedUncertainty":{"sCombUncertEvaluator":"Data file compiler","nCombUncertAssessNum":1,"eCombUncertEvalMethod":"Propagation of evaluated standard uncertainties","nCombUncertLevOfConfid":95,"tml_elements":["nCombUncertAssessNum","sCombUncertEvaluator","eCombUncertEvalMethod","nCombUncertLevOfConfid"]},"Property-MethodID":{"PropertyGroup":{"Criticals":{"sMethodName":"pulse heating","ePropName":"Critical pressure, kPa","tml_elements":["ePropName","sMethodName"]},"tml_elements":["Criticals"]},"tml_elements":["PropertyGroup"]}}],"sContributor":"TRC","Component":[{"tml_elements":["RegNum","nSampleNm"],"nSampleNm":1,"RegNum":{"nOrgNum":2,"tml_elements":["nOrgNum"]}}],"tml_elements":["nPureOrMixtureDataNumber","Component","eExpPurpose","sCompiler","sContributor","dateDateAdded","Property","PhaseID","NumValues"],"PhaseID":[{"tml_elements":["ePhase"],"ePhase":"Liquid"},{"ePhase":"Gas","tml_elements":["ePhase"]}]},{"Property":[{"Property-MethodID":{"tml_elements":["PropertyGroup"],"PropertyGroup":{"Criticals":{"ePropName":"Critical temperature, K","sMethodName":"pulse heating","tml_elements":["ePropName","sMethodName"]},"tml_elements":["Criticals"]}},"CombinedUncertainty":{"nCombUncertAssessNum":1,"sCombUncertEvaluator":"Data file compiler","tml_elements":["nCombUncertAssessNum","sCombUncertEvaluator","eCombUncertEvalMethod","nCombUncertLevOfConfid"],"nCombUncertLevOfConfid":95,"eCombUncertEvalMethod":"Propagation of evaluated standard uncertainties"},"tml_elements":["nPropNumber","Property-MethodID","PropPhaseID","ePresentation","CombinedUncertainty"],"ePresentation":"Direct value, X","nPropNumber":1,"PropPhaseID":{"ePropPhase":"Liquid","tml_elements":["ePropPhase"]}}],"eExpPurpose":"Principal objective of the work","NumValues":[{"tml_elements":["PropertyValue"],"PropertyValue":[{"nPropNumber":1,"nPropDigits":3,"tml_elements":["nPropNumber","nPropValue","nPropDigits","CombinedUncertainty"],"nPropValue":647,"CombinedUncertainty":{"nCombUncertAssessNum":1,"nCombExpandUncertValue":12,"tml_elements":["nCombUncertAssessNum","nCombExpandUncertValue"]}}],"VariableValue":[]}],"sCompiler":"VN","nPureOrMixtureDataNumber":4,"dateDateAdded":"3/27/2009","Component":[{"nSampleNm":1,"RegNum":{"nOrgNum":2,"tml_elements":["nOrgNum"]},"tml_elements":["RegNum","nSampleNm"]}],"PhaseID":[{"ePhase":"Liquid","tml_elements":["ePhase"]},{"tml_elements":["ePhase"],"ePhase":"Gas"}],"tml_elements":["nPureOrMixtureDataNumber","Component","eExpPurpose","sCompiler","sContributor","dateDateAdded","Property","PhaseID","NumValues"],"sContributor":"TRC"},{"eExpPurpose":"Principal objective of the work","Property":[{"CombinedUncertainty":{"sCombUncertEvaluator":"Data file compiler","nCombUncertAssessNum":1,"eCombUncertEvalMethod":"Propagation of evaluated standard uncertainties","nCombUncertLevOfConfid":95,"tml_elements":["nCombUncertAssessNum","sCombUncertEvaluator","eCombUncertEvalMethod","nCombUncertLevOfConfid"]},"Property-MethodID":{"PropertyGroup":{"tml_elements":["Criticals"],"Criticals":{"tml_elements":["ePropName","sMethodName"],"ePropName":"Critical pressure, kPa","sMethodName":"pulse heating"}},"tml_elements":["PropertyGroup"]},"PropPhaseID":{"tml_elements":["ePropPhase"],"ePropPhase":"Liquid"},"nPropNumber":1,"ePresentation":"Direct value, X","tml_elements":["nPropNumber","Property-MethodID","PropPhaseID","ePresentation","CombinedUncertainty"]}],"dateDateAdded":"3/27/2009","nPureOrMixtureDataNumber":5,"sCompiler":"VN","NumValues":[{"PropertyValue":[{"CombinedUncertainty":{"nCombUncertAssessNum":1,"nCombExpandUncertValue":80,"tml_elements":["nCombUncertAssessNum","nCombExpandUncertValue"]},"nPropValue":1150,"nPropNumber":1,"nPropDigits":3,"tml_elements":["nPropNumber","nPropValue","nPropDigits","CombinedUncertainty"]}],"tml_elements":["PropertyValue"],"VariableValue":[]}],"tml_elements":["nPureOrMixtureDataNumber","Component","eExpPurpose","sCompiler","sContributor","dateDateAdded","Property","PhaseID","NumValues"],"PhaseID":[{"tml_elements":["ePhase"],"ePhase":"Liquid"},{"ePhase":"Gas","tml_elements":["ePhase"]}],"Component":[{"tml_elements":["RegNum","nSampleNm"],"nSampleNm":1,"RegNum":{"nOrgNum":3,"tml_elements":["nOrgNum"]}}],"sContributor":"TRC"},{"NumValues":[{"VariableValue":[],"tml_elements":["PropertyValue"],"PropertyValue":[{"nPropValue":685,"CombinedUncertainty":{"nCombUncertAssessNum":1,"nCombExpandUncertValue":14,"tml_elements":["nCombUncertAssessNum","nCombExpandUncertValue"]},"nPropDigits":3,"nPropNumber":1,"tml_elements":["nPropNumber","nPropValue","nPropDigits","CombinedUncertainty"]}]}],"nPureOrMixtureDataNumber":6,"dateDateAdded":"3/27/2009","sCompiler":"VN","Property":[{"Property-MethodID":{"tml_elements":["PropertyGroup"],"PropertyGroup":{"Criticals":{"ePropName":"Critical temperature, K","sMethodName":"pulse heating","tml_elements":["ePropName","sMethodName"]},"tml_elements":["Criticals"]}},"CombinedUncertainty":{"nCombUncertAssessNum":1,"sCombUncertEvaluator":"Data file compiler","tml_elements":["nCombUncertAssessNum","sCombUncertEvaluator","eCombUncertEvalMethod","nCombUncertLevOfConfid"],"nCombUncertLevOfConfid":95,"eCombUncertEvalMethod":"Propagation of evaluated standard uncertainties"},"ePresentation":"Direct value, X","tml_elements":["nPropNumber","Property-MethodID","PropPhaseID","ePresentation","CombinedUncertainty"],"PropPhaseID":{"tml_elements":["ePropPhase"],"ePropPhase":"Liquid"},"nPropNumber":1}],"eExpPurpose":"Principal objective of the work","sContributor":"TRC","Component":[{"RegNum":{"tml_elements":["nOrgNum"],"nOrgNum":3},"nSampleNm":1,"tml_elements":["RegNum","nSampleNm"]}],"tml_elements":["nPureOrMixtureDataNumber","Component","eExpPurpose","sCompiler","sContributor","dateDateAdded","Property","PhaseID","NumValues"],"PhaseID":[{"tml_elements":["ePhase"],"ePhase":"Liquid"},{"ePhase":"Gas","tml_elements":["ePhase"]}]},{"tml_elements":["nPureOrMixtureDataNumber","Component","eExpPurpose","sCompiler","sContributor","dateDateAdded","Property","PhaseID","NumValues"],"PhaseID":[{"tml_elements":["ePhase"],"ePhase":"Liquid"},{"ePhase":"Gas","tml_elements":["ePhase"]}],"Component":[{"tml_elements":["RegNum","nSampleNm"],"RegNum":{"tml_elements":["nOrgNum"],"nOrgNum":4},"nSampleNm":1}],"sContributor":"TRC","Property":[{"nPropNumber":1,"PropPhaseID":{"ePropPhase":"Liquid","tml_elements":["ePropPhase"]},"Property-MethodID":{"PropertyGroup":{"Criticals":{"sMethodName":"pulse heating","ePropName":"Critical pressure, kPa","tml_elements":["ePropName","sMethodName"]},"tml_elements":["Criticals"]},"tml_elements":["PropertyGroup"]},"tml_elements":["nPropNumber","Property-MethodID","PropPhaseID","ePresentation","CombinedUncertainty"],"ePresentation":"Direct value, X","CombinedUncertainty":{"nCombUncertAssessNum":1,"sCombUncertEvaluator":"Data file compiler","tml_elements":["nCombUncertAssessNum","sCombUncertEvaluator","eCombUncertEvalMethod","nCombUncertLevOfConfid"],"nCombUncertLevOfConfid":95,"eCombUncertEvalMethod":"Propagation of evaluated standard uncertainties"}}],"eExpPurpose":"Principal objective of the work","nPureOrMixtureDataNumber":7,"dateDateAdded":"3/27/2009","sCompiler":"VN","NumValues":[{"tml_elements":["PropertyValue"],"PropertyValue":[{"nPropDigits":2,"nPropNumber":1,"tml_elements":["nPropNumber","nPropValue","nPropDigits","CombinedUncertainty"],"nPropValue":910,"CombinedUncertainty":{"tml_elements":["nCombUncertAssessNum","nCombExpandUncertValue"],"nCombExpandUncertValue":60,"nCombUncertAssessNum":1}}],"VariableValue":[]}]},{"NumValues":[{"PropertyValue":[{"CombinedUncertainty":{"nCombExpandUncertValue":16,"tml_elements":["nCombUncertAssessNum","nCombExpandUncertValue"],"nCombUncertAssessNum":1},"nPropValue":751,"nPropNumber":1,"nPropDigits":3,"tml_elements":["nPropNumber","nPropValue","nPropDigits","CombinedUncertainty"]}],"tml_elements":["PropertyValue"],"VariableValue":[]}],"nPureOrMixtureDataNumber":8,"dateDateAdded":"3/27/2009","sCompiler":"VN","eExpPurpose":"Principal objective of the work","Property":[{"tml_elements":["nPropNumber","Property-MethodID","PropPhaseID","ePresentation","CombinedUncertainty"],"ePresentation":"Direct value, X","nPropNumber":1,"PropPhaseID":{"ePropPhase":"Liquid","tml_elements":["ePropPhase"]},"CombinedUncertainty":{"nCombUncertAssessNum":1,"sCombUncertEvaluator":"Data file compiler","tml_elements":["nCombUncertAssessNum","sCombUncertEvaluator","eCombUncertEvalMethod","nCombUncertLevOfConfid"],"nCombUncertLevOfConfid":95,"eCombUncertEvalMethod":"Propagation of evaluated standard uncertainties"},"Property-MethodID":{"tml_elements":["PropertyGroup"],"PropertyGroup":{"Criticals":{"ePropName":"Critical temperature, K","sMethodName":"pulse heating","tml_elements":["ePropName","sMethodName"]},"tml_elements":["Criticals"]}}}],"sContributor":"TRC","Component":[{"tml_elements":["RegNum","nSampleNm"],"nSampleNm":1,"RegNum":{"tml_elements":["nOrgNum"],"nOrgNum":4}}],"tml_elements":["nPureOrMixtureDataNumber","Component","eExpPurpose","sCompiler","sContributor","dateDateAdded","Property","PhaseID","NumValues"],"PhaseID":[{"tml_elements":["ePhase"],"ePhase":"Liquid"},{"tml_elements":["ePhase"],"ePhase":"Gas"}]},{"Property":[{"tml_elements":["nPropNumber","Property-MethodID","PropPhaseID","ePresentation","CombinedUncertainty"],"ePresentation":"Direct value, X","nPropNumber":1,"Property-MethodID":{"PropertyGroup":{"Criticals":{"ePropName":"Critical pressure, kPa","sMethodName":"pulse heating","tml_elements":["ePropName","sMethodName"]},"tml_elements":["Criticals"]},"tml_elements":["PropertyGroup"]},"PropPhaseID":{"ePropPhase":"Liquid","tml_elements":["ePropPhase"]},"CombinedUncertainty":{"sCombUncertEvaluator":"Data file compiler","nCombUncertAssessNum":1,"nCombUncertLevOfConfid":95,"eCombUncertEvalMethod":"Propagation of evaluated standard uncertainties","tml_elements":["nCombUncertAssessNum","sCombUncertEvaluator","eCombUncertEvalMethod","nCombUncertLevOfConfid"]}}],"eExpPurpose":"Principal objective of the work","sCompiler":"VN","nPureOrMixtureDataNumber":9,"dateDateAdded":"3/27/2009","NumValues":[{"VariableValue":[],"tml_elements":["PropertyValue"],"PropertyValue":[{"tml_elements":["nPropNumber","nPropValue","nPropDigits","CombinedUncertainty"],"nPropDigits":2,"nPropNumber":1,"CombinedUncertainty":{"tml_elements":["nCombUncertAssessNum","nCombExpandUncertValue"],"nCombExpandUncertValue":40,"nCombUncertAssessNum":1},"nPropValue":780}]}],"PhaseID":[{"ePhase":"Liquid","tml_elements":["ePhase"]},{"ePhase":"Gas","tml_elements":["ePhase"]}],"tml_elements":["nPureOrMixtureDataNumber","Component","eExpPurpose","sCompiler","sContributor","dateDateAdded","Property","PhaseID","NumValues"],"Component":[{"tml_elements":["RegNum","nSampleNm"],"nSampleNm":1,"RegNum":{"tml_elements":["nOrgNum"],"nOrgNum":5}}],"sContributor":"TRC"},{"sCompiler":"VN","dateDateAdded":"3/27/2009","nPureOrMixtureDataNumber":10,"NumValues":[{"PropertyValue":[{"tml_elements":["nPropNumber","nPropValue","nPropDigits","CombinedUncertainty"],"nPropDigits":2,"nPropNumber":1,"nPropValue":780,"CombinedUncertainty":{"nCombUncertAssessNum":1,"nCombExpandUncertValue":16,"tml_elements":["nCombUncertAssessNum","nCombExpandUncertValue"]}}],"tml_elements":["PropertyValue"],"VariableValue":[]}],"Property":[{"Property-MethodID":{"PropertyGroup":{"Criticals":{"sMethodName":"pulse heating","ePropName":"Critical temperature, K","tml_elements":["ePropName","sMethodName"]},"tml_elements":["Criticals"]},"tml_elements":["PropertyGroup"]},"CombinedUncertainty":{"eCombUncertEvalMethod":"Propagation of evaluated standard uncertainties","nCombUncertLevOfConfid":95,"tml_elements":["nCombUncertAssessNum","sCombUncertEvaluator","eCombUncertEvalMethod","nCombUncertLevOfConfid"],"sCombUncertEvaluator":"Data file compiler","nCombUncertAssessNum":1},"ePresentation":"Direct value, X","tml_elements":["nPropNumber","Property-MethodID","PropPhaseID","ePresentation","CombinedUncertainty"],"PropPhaseID":{"tml_elements":["ePropPhase"],"ePropPhase":"Liquid"},"nPropNumber":1}],"eExpPurpose":"Principal objective of the work","sContributor":"TRC","PhaseID":[{"ePhase":"Liquid","tml_elements":["ePhase"]},{"ePhase":"Gas","tml_elements":["ePhase"]}],"tml_elements":["nPureOrMixtureDataNumber","Component","eExpPurpose","sCompiler","sContributor","dateDateAdded","Property","PhaseID","NumValues"],"Component":[{"nSampleNm":1,"RegNum":{"tml_elements":["nOrgNum"],"nOrgNum":5},"tml_elements":["RegNum","nSampleNm"]}]},{"NumValues":[{"VariableValue":[],"tml_elements":["PropertyValue"],"PropertyValue":[{"nPropValue":730,"CombinedUncertainty":{"nCombUncertAssessNum":1,"nCombExpandUncertValue":40,"tml_elements":["nCombUncertAssessNum","nCombExpandUncertValue"]},"nPropNumber":1,"nPropDigits":2,"tml_elements":["nPropNumber","nPropValue","nPropDigits","CombinedUncertainty"]}]}],"sCompiler":"VN","dateDateAdded":"3/27/2009","nPureOrMixtureDataNumber":11,"Property":[{"ePresentation":"Direct value, X","tml_elements":["nPropNumber","Property-MethodID","PropPhaseID","ePresentation","CombinedUncertainty"],"PropPhaseID":{"tml_elements":["ePropPhase"],"ePropPhase":"Liquid"},"nPropNumber":1,"Property-MethodID":{"tml_elements":["PropertyGroup"],"PropertyGroup":{"tml_elements":["Criticals"],"Criticals":{"ePropName":"Critical pressure, kPa","sMethodName":"pulse heating","tml_elements":["ePropName","sMethodName"]}}},"CombinedUncertainty":{"nCombUncertAssessNum":1,"sCombUncertEvaluator":"Data file compiler","tml_elements":["nCombUncertAssessNum","sCombUncertEvaluator","eCombUncertEvalMethod","nCombUncertLevOfConfid"],"nCombUncertLevOfConfid":95,"eCombUncertEvalMethod":"Propagation of evaluated standard uncertainties"}}],"eExpPurpose":"Principal objective of the work","sContributor":"TRC","Component":[{"tml_elements":["RegNum","nSampleNm"],"RegNum":{"tml_elements":["nOrgNum"],"nOrgNum":6},"nSampleNm":1}],"PhaseID":[{"ePhase":"Liquid","tml_elements":["ePhase"]},{"ePhase":"Gas","tml_elements":["ePhase"]}],"tml_elements":["nPureOrMixtureDataNumber","Component","eExpPurpose","sCompiler","sContributor","dateDateAdded","Property","PhaseID","NumValues"]},{"sContributor":"TRC","PhaseID":[{"tml_elements":["ePhase"],"ePhase":"Liquid"},{"ePhase":"Gas","tml_elements":["ePhase"]}],"tml_elements":["nPureOrMixtureDataNumber","Component","eExpPurpose","sCompiler","sContributor","dateDateAdded","Property","PhaseID","NumValues"],"Component":[{"tml_elements":["RegNum","nSampleNm"],"nSampleNm":1,"RegNum":{"tml_elements":["nOrgNum"],"nOrgNum":6}}],"sCompiler":"VN","nPureOrMixtureDataNumber":12,"dateDateAdded":"3/27/2009","NumValues":[{"VariableValue":[],"tml_elements":["PropertyValue"],"PropertyValue":[{"tml_elements":["nPropNumber","nPropValue","nPropDigits","CombinedUncertainty"],"nPropNumber":1,"nPropDigits":3,"CombinedUncertainty":{"nCombUncertAssessNum":1,"tml_elements":["nCombUncertAssessNum","nCombExpandUncertValue"],"nCombExpandUncertValue":16},"nPropValue":808}]}],"Property":[{"ePresentation":"Direct value, X","tml_elements":["nPropNumber","Property-MethodID","PropPhaseID","ePresentation","CombinedUncertainty"],"Property-MethodID":{"PropertyGroup":{"Criticals":{"tml_elements":["ePropName","sMethodName"],"sMethodName":"pulse heating","ePropName":"Critical temperature, K"},"tml_elements":["Criticals"]},"tml_elements":["PropertyGroup"]},"PropPhaseID":{"ePropPhase":"Liquid","tml_elements":["ePropPhase"]},"nPropNumber":1,"CombinedUncertainty":{"sCombUncertEvaluator":"Data file compiler","nCombUncertAssessNum":1,"nCombUncertLevOfConfid":95,"eCombUncertEvalMethod":"Propagation of evaluated standard uncertainties","tml_elements":["nCombUncertAssessNum","sCombUncertEvaluator","eCombUncertEvalMethod","nCombUncertLevOfConfid"]}}],"eExpPurpose":"Principal objective of the work"},{"NumValues":[{"PropertyValue":[{"nPropValue":660,"CombinedUncertainty":{"nCombExpandUncertValue":40,"tml_elements":["nCombUncertAssessNum","nCombExpandUncertValue"],"nCombUncertAssessNum":1},"tml_elements":["nPropNumber","nPropValue","nPropDigits","CombinedUncertainty"],"nPropNumber":1,"nPropDigits":2}],"tml_elements":["PropertyValue"],"VariableValue":[]}],"sCompiler":"VN","nPureOrMixtureDataNumber":13,"dateDateAdded":"3/27/2009","eExpPurpose":"Principal objective of the work","Property":[{"ePresentation":"Direct value, X","tml_elements":["nPropNumber","Property-MethodID","PropPhaseID","ePresentation","CombinedUncertainty"],"PropPhaseID":{"ePropPhase":"Liquid","tml_elements":["ePropPhase"]},"nPropNumber":1,"Property-MethodID":{"PropertyGroup":{"Criticals":{"tml_elements":["ePropName","sMethodName"],"ePropName":"Critical pressure, kPa","sMethodName":"pulse heating"},"tml_elements":["Criticals"]},"tml_elements":["PropertyGroup"]},"CombinedUncertainty":{"nCombUncertAssessNum":1,"sCombUncertEvaluator":"Data file compiler","tml_elements":["nCombUncertAssessNum","sCombUncertEvaluator","eCombUncertEvalMethod","nCombUncertLevOfConfid"],"nCombUncertLevOfConfid":95,"eCombUncertEvalMethod":"Propagation of evaluated standard uncertainties"}}],"sContributor":"TRC","Component":[{"tml_elements":["RegNum","nSampleNm"],"RegNum":{"nOrgNum":7,"tml_elements":["nOrgNum"]},"nSampleNm":1}],"PhaseID":[{"ePhase":"Liquid","tml_elements":["ePhase"]},{"ePhase":"Gas","tml_elements":["ePhase"]}],"tml_elements":["nPureOrMixtureDataNumber","Component","eExpPurpose","sCompiler","sContributor","dateDateAdded","Property","PhaseID","NumValues"]},{"Component":[{"nSampleNm":1,"RegNum":{"nOrgNum":7,"tml_elements":["nOrgNum"]},"tml_elements":["RegNum","nSampleNm"]}],"PhaseID":[{"tml_elements":["ePhase"],"ePhase":"Liquid"},{"tml_elements":["ePhase"],"ePhase":"Gas"}],"tml_elements":["nPureOrMixtureDataNumber","Component","eExpPurpose","sCompiler","sContributor","dateDateAdded","Property","PhaseID","NumValues"],"sContributor":"TRC","eExpPurpose":"Principal objective of the work","Property":[{"tml_elements":["nPropNumber","Property-MethodID","PropPhaseID","ePresentation","CombinedUncertainty"],"ePresentation":"Direct value, X","nPropNumber":1,"PropPhaseID":{"tml_elements":["ePropPhase"],"ePropPhase":"Liquid"},"Property-MethodID":{"tml_elements":["PropertyGroup"],"PropertyGroup":{"tml_elements":["Criticals"],"Criticals":{"tml_elements":["ePropName","sMethodName"],"ePropName":"Critical temperature, K","sMethodName":"pulse heating"}}},"CombinedUncertainty":{"eCombUncertEvalMethod":"Propagation of evaluated standard uncertainties","nCombUncertLevOfConfid":95,"tml_elements":["nCombUncertAssessNum","sCombUncertEvaluator","eCombUncertEvalMethod","nCombUncertLevOfConfid"],"sCombUncertEvaluator":"Data file compiler","nCombUncertAssessNum":1}}],"NumValues":[{"tml_elements":["PropertyValue"],"PropertyValue":[{"tml_elements":["nPropNumber","nPropValue","nPropDigits","CombinedUncertainty"],"nPropNumber":1,"nPropDigits":3,"CombinedUncertainty":{"nCombUncertAssessNum":1,"tml_elements":["nCombUncertAssessNum","nCombExpandUncertValue"],"nCombExpandUncertValue":16},"nPropValue":831}],"VariableValue":[]}],"sCompiler":"VN","dateDateAdded":"3/27/2009","nPureOrMixtureDataNumber":14},{"sCompiler":"VN","dateDateAdded":"3/27/2009","nPureOrMixtureDataNumber":15,"NumValues":[{"tml_elements":["PropertyValue"],"PropertyValue":[{"CombinedUncertainty":{"tml_elements":["nCombUncertAssessNum","nCombExpandUncertValue"],"nCombExpandUncertValue":40,"nCombUncertAssessNum":1},"nPropValue":630,"nPropDigits":2,"nPropNumber":1,"tml_elements":["nPropNumber","nPropValue","nPropDigits","CombinedUncertainty"]}],"VariableValue":[]}],"eExpPurpose":"Principal objective of the work","Property":[{"CombinedUncertainty":{"nCombUncertAssessNum":1,"sCombUncertEvaluator":"Data file compiler","tml_elements":["nCombUncertAssessNum","sCombUncertEvaluator","eCombUncertEvalMethod","nCombUncertLevOfConfid"],"eCombUncertEvalMethod":"Propagation of evaluated standard uncertainties","nCombUncertLevOfConfid":95},"ePresentation":"Direct value, X","tml_elements":["nPropNumber","Property-MethodID","PropPhaseID","ePresentation","CombinedUncertainty"],"Property-MethodID":{"PropertyGroup":{"Criticals":{"sMethodName":"pulse heating","ePropName":"Critical pressure, kPa","tml_elements":["ePropName","sMethodName"]},"tml_elements":["Criticals"]},"tml_elements":["PropertyGroup"]},"PropPhaseID":{"ePropPhase":"Liquid","tml_elements":["ePropPhase"]},"nPropNumber":1}],"sContributor":"TRC","PhaseID":[{"ePhase":"Liquid","tml_elements":["ePhase"]},{"ePhase":"Gas","tml_elements":["ePhase"]}],"tml_elements":["nPureOrMixtureDataNumber","Component","eExpPurpose","sCompiler","sContributor","dateDateAdded","Property","PhaseID","NumValues"],"Component":[{"tml_elements":["RegNum","nSampleNm"],"nSampleNm":1,"RegNum":{"tml_elements":["nOrgNum"],"nOrgNum":8}}]},{"tml_elements":["nPureOrMixtureDataNumber","Component","eExpPurpose","sCompiler","sContributor","dateDateAdded","Property","PhaseID","NumValues"],"PhaseID":[{"tml_elements":["ePhase"],"ePhase":"Liquid"},{"tml_elements":["ePhase"],"ePhase":"Gas"}],"Component":[{"tml_elements":["RegNum","nSampleNm"],"nSampleNm":1,"RegNum":{"nOrgNum":8,"tml_elements":["nOrgNum"]}}],"sContributor":"TRC","Property":[{"tml_elements":["nPropNumber","Property-MethodID","PropPhaseID","ePresentation","CombinedUncertainty"],"ePresentation":"Direct value, X","nPropNumber":1,"PropPhaseID":{"ePropPhase":"Liquid","tml_elements":["ePropPhase"]},"Property-MethodID":{"tml_elements":["PropertyGroup"],"PropertyGroup":{"tml_elements":["Criticals"],"Criticals":{"ePropName":"Critical temperature, K","sMethodName":"pulse heating","tml_elements":["ePropName","sMethodName"]}}},"CombinedUncertainty":{"sCombUncertEvaluator":"Data file compiler","nCombUncertAssessNum":1,"nCombUncertLevOfConfid":95,"eCombUncertEvalMethod":"Propagation of evaluated standard uncertainties","tml_elements":["nCombUncertAssessNum","sCombUncertEvaluator","eCombUncertEvalMethod","nCombUncertLevOfConfid"]}}],"eExpPurpose":"Principal objective of the work","nPureOrMixtureDataNumber":16,"dateDateAdded":"3/27/2009","sCompiler":"VN","NumValues":[{"VariableValue":[],"PropertyValue":[{"nPropValue":855,"CombinedUncertainty":{"nCombUncertAssessNum":1,"nCombExpandUncertValue":18,"tml_elements":["nCombUncertAssessNum","nCombExpandUncertValue"]},"nPropDigits":3,"nPropNumber":1,"tml_elements":["nPropNumber","nPropValue","nPropDigits","CombinedUncertainty"]}],"tml_elements":["PropertyValue"]}]},{"sContributor":"TRC","Component":[{"tml_elements":["RegNum","nSampleNm"],"nSampleNm":1,"RegNum":{"tml_elements":["nOrgNum"],"nOrgNum":9}}],"PhaseID":[{"tml_elements":["ePhase"],"ePhase":"Liquid"},{"tml_elements":["ePhase"],"ePhase":"Gas"}],"tml_elements":["nPureOrMixtureDataNumber","Component","eExpPurpose","sCompiler","sContributor","dateDateAdded","Property","PhaseID","NumValues"],"NumValues":[{"VariableValue":[],"PropertyValue":[{"tml_elements":["nPropNumber","nPropValue","nPropDigits","CombinedUncertainty"],"nPropDigits":2,"nPropNumber":1,"nPropValue":610,"CombinedUncertainty":{"nCombUncertAssessNum":1,"tml_elements":["nCombUncertAssessNum","nCombExpandUncertValue"],"nCombExpandUncertValue":40}}],"tml_elements":["PropertyValue"]}],"sCompiler":"VN","dateDateAdded":"3/27/2009","nPureOrMixtureDataNumber":17,"Property":[{"nPropNumber":1,"Property-MethodID":{"PropertyGroup":{"Criticals":{"tml_elements":["ePropName","sMethodName"],"ePropName":"Critical pressure, kPa","sMethodName":"pulse heating"},"tml_elements":["Criticals"]},"tml_elements":["PropertyGroup"]},"PropPhaseID":{"ePropPhase":"Liquid","tml_elements":["ePropPhase"]},"tml_elements":["nPropNumber","Property-MethodID","PropPhaseID","ePresentation","CombinedUncertainty"],"ePresentation":"Direct value, X","CombinedUncertainty":{"nCombUncertAssessNum":1,"sCombUncertEvaluator":"Data file compiler","tml_elements":["nCombUncertAssessNum","sCombUncertEvaluator","eCombUncertEvalMethod","nCombUncertLevOfConfid"],"eCombUncertEvalMethod":"Propagation of evaluated standard uncertainties","nCombUncertLevOfConfid":95}}],"eExpPurpose":"Principal objective of the work"},{"Component":[{"nSampleNm":1,"RegNum":{"tml_elements":["nOrgNum"],"nOrgNum":9},"tml_elements":["RegNum","nSampleNm"]}],"PhaseID":[{"ePhase":"Liquid","tml_elements":["ePhase"]},{"tml_elements":["ePhase"],"ePhase":"Gas"}],"tml_elements":["nPureOrMixtureDataNumber","Component","eExpPurpose","sCompiler","sContributor","dateDateAdded","Property","PhaseID","NumValues"],"sContributor":"TRC","Property":[{"nPropNumber":1,"PropPhaseID":{"ePropPhase":"Liquid","tml_elements":["ePropPhase"]},"tml_elements":["nPropNumber","Property-MethodID","PropPhaseID","ePresentation","CombinedUncertainty"],"ePresentation":"Direct value, X","CombinedUncertainty":{"nCombUncertAssessNum":1,"sCombUncertEvaluator":"Data file compiler","tml_elements":["nCombUncertAssessNum","sCombUncertEvaluator","eCombUncertEvalMethod","nCombUncertLevOfConfid"],"nCombUncertLevOfConfid":95,"eCombUncertEvalMethod":"Propagation of evaluated standard uncertainties"},"Property-MethodID":{"tml_elements":["PropertyGroup"],"PropertyGroup":{"Criticals":{"ePropName":"Critical temperature, K","sMethodName":"pulse heating","tml_elements":["ePropName","sMethodName"]},"tml_elements":["Criticals"]}}}],"eExpPurpose":"Principal objective of the work","NumValues":[{"VariableValue":[],"PropertyValue":[{"CombinedUncertainty":{"nCombUncertAssessNum":1,"nCombExpandUncertValue":18,"tml_elements":["nCombUncertAssessNum","nCombExpandUncertValue"]},"nPropValue":882,"nPropDigits":3,"nPropNumber":1,"tml_elements":["nPropNumber","nPropValue","nPropDigits","CombinedUncertainty"]}],"tml_elements":["PropertyValue"]}],"sCompiler":"VN","nPureOrMixtureDataNumber":18,"dateDateAdded":"3/27/2009"}]}