{"PureOrMixtureData":[{"Property":[{"Property-MethodID":{"tml_elements":["PropertyGroup"],"PropertyGroup":{"tml_elements":["PhaseTransition"],"PhaseTransition":{"sMethodName":"DTA","ePropName":"Normal melting temperature, K","tml_elements":["ePropName","sMethodName"]}}},"CombinedUncertainty":{"sCombUncertEvaluator":"Data file compiler","nCombUncertAssessNum":1,"eCombUncertEvalMethod":"Propagation of evaluated standard uncertainties","nCombUncertLevOfConfid":95,"tml_elements":["nCombUncertAssessNum","sCombUncertEvaluator","eCombUncertEvalMethod","nCombUncertLevOfConfid"]},"ePresentation":"Direct value, X","tml_elements":["nPropNumber","Property-MethodID","PropPhaseID","ePresentation","CombinedUncertainty"],"PropPhaseID":{"ePropPhase":"Crystal","tml_elements":["ePropPhase"]},"nPropNumber":1}],"eExpPurpose":"Principal objective of the work","sCompiler":"KRP","dateDateAdded":"11/4/2008","nPureOrMixtureDataNumber":1,"NumValues":[{"PropertyValue":[{"nPropValue":423,"CombinedUncertainty":{"nCombUncertAssessNum":1,"tml_elements":["nCombUncertAssessNum","nCombExpandUncertValue"],"nCombExpandUncertValue":1},"nPropNumber":1,"nPropDigits":3,"tml_elements":["nPropNumber","nPropValue","nPropDigits","CombinedUncertainty"]}],"tml_elements":["PropertyValue"],"VariableValue":[]}],"PhaseID":[{"ePhase":"Crystal","tml_elements":["ePhase"]},{"ePhase":"Liquid","tml_elements":["ePhase"]},{"ePhase":"Air at 1 atmosphere","tml_elements":["ePhase"]}],"tml_elements":["nPureOrMixtureDataNumber","Component","eExpPurpose","sCompiler","sContributor","dateDateAdded","Property","PhaseID","NumValues"],"Component":[{"tml_elements":["RegNum","nSampleNm"],"RegNum":{"tml_elements":["nOrgNum"],"nOrgNum":2},"nSampleNm":1}],"sContributor":"TRC"},{"Property":[{"CombinedUncertainty":{"sCombUncertEvaluator":"Data file compiler","nCombUncertAssessNum":1,"eCombUncertEvalMethod":"Propagation of evaluated standard uncertainties","nCombUncertLevOfConfid":95,"tml_elements":["nCombUncertAssessNum","sCombUncertEvaluator","eCombUncertEvalMethod","nCombUncertLevOfConfid"]},"ePresentation":"Direct value, X","tml_elements":["nPropNumber","Property-MethodID","PropPhaseID","ePresentation","CombinedUncertainty"],"PropPhaseID":{"tml_elements":["ePropPhase"],"ePropPhase":"Crystal"},"Property-MethodID":{"tml_elements":["PropertyGroup"],"PropertyGroup":{"tml_elements":["PhaseTransition"],"PhaseTransition":{"tml_elements":["ePropName","sMethodName"],"ePropName":"Normal melting temperature, K","sMethodName":"DTA"}}},"nPropNumber":1}],"eExpPurpose":"Principal objective of the work","NumValues":[{"VariableValue":[],"PropertyValue":[{"CombinedUncertainty":{"nCombUncertAssessNum":1,"nCombExpandUncertValue":1,"tml_elements":["nCombUncertAssessNum","nCombExpandUncertValue"]},"nPropValue":372,"tml_elements":["nPropNumber","nPropValue","nPropDigits","CombinedUncertainty"],"nPropDigits":3,"nPropNumber":1}],"tml_elements":["PropertyValue"]}],"sCompiler":"KRP","nPureOrMixtureDataNumber":2,"dateDateAdded":"11/4/2008","Component":[{"tml_elements":["RegNum","nSampleNm"],"nSampleNm":1,"RegNum":{"nOrgNum":3,"tml_elements":["nOrgNum"]}}],"PhaseID":[{"tml_elements":["ePhase"],"ePhase":"Crystal"},{"tml_elements":["ePhase"],"ePhase":"Liquid"},{"tml_elements":["ePhase"],"ePhase":"Air at 1 atmosphere"}],"tml_elements":["nPureOrMixtureDataNumber","Component","eExpPurpose","sCompiler","sContributor","dateDateAdded","Property","PhaseID","NumValues"],"sContributor":"TRC"},{"NumValues":[{"tml_elements":["VariableValue","PropertyValue"],"PropertyValue":[{"CombinedUncertainty":{"nCombExpandUncertValue":6e-06,"tml_elements":["nCombUncertAssessNum","nCombExpandUncertValue"],"nCombUncertAssessNum":1},"nPropValue":5.9e-05,"nPropNumber":1,"nPropDigits":2,"tml_elements":["nPropNumber","nPropValue","nPropDigits","CombinedUncertainty"]}],"VariableValue":[{"nVarValue":308.15,"nVarNumber":1,"tml_elements":["nVarNumber","nVarValue","nVarDigits"],"nVarDigits":5},{"nVarValue":12000,"nVarNumber":2,"tml_elements":["nVarNumber","nVarValue","nVarDigits"],"nVarDigits":2}]},{"tml_elements":["VariableValue","PropertyValue"],"PropertyValue":[{"nPropNumber":1,"nPropDigits":2,"tml_elements":["nPropNumber","nPropValue","nPropDigits","CombinedUncertainty"],"nPropValue":9e-05,"CombinedUncertainty":{"nCombUncertAssessNum":1,"tml_elements":["nCombUncertAssessNum","nCombExpandUncertValue"],"nCombExpandUncertValue":9e-06}}],"VariableValue":[{"nVarNumber":1,"nVarDigits":5,"tml_elements":["nVarNumber","nVarValue","nVarDigits"],"nVarValue":308.15},{"nVarDigits":2,"tml_elements":["nVarNumber","nVarValue","nVarDigits"],"nVarNumber":2,"nVarValue":14000}]},{"VariableValue":[{"nVarValue":308.15,"nVarNumber":1,"tml_elements":["nVarNumber","nVarValue","nVarDigits"],"nVarDigits":5},{"nVarNumber":2,"nVarDigits":2,"tml_elements":["nVarNumber","nVarValue","nVarDigits"],"nVarValue":16000}],"tml_elements":["VariableValue","PropertyValue"],"PropertyValue":[{"CombinedUncertainty":{"tml_elements":["nCombUncertAssessNum","nCombExpandUncertValue"],"nCombExpandUncertValue":1.2e-05,"nCombUncertAssessNum":1},"nPropValue":0.000112,"tml_elements":["nPropNumber","nPropValue","nPropDigits","CombinedUncertainty"],"nPropDigits":3,"nPropNumber":1}]},{"PropertyValue":[{"nPropDigits":3,"nPropNumber":1,"tml_elements":["nPropNumber","nPropValue","nPropDigits","CombinedUncertainty"],"CombinedUncertainty":{"nCombUncertAssessNum":1,"tml_elements":["nCombUncertAssessNum","nCombExpandUncertValue"],"nCombExpandUncertValue":1.4e-05},"nPropValue":0.000132}],"tml_elements":["VariableValue","PropertyValue"],"VariableValue":[{"nVarDigits":5,"tml_elements":["nVarNumber","nVarValue","nVarDigits"],"nVarNumber":1,"nVarValue":308.15},{"nVarDigits":2,"tml_elements":["nVarNumber","nVarValue","nVarDigits"],"nVarNumber":2,"nVarValue":18000}]},{"VariableValue":[{"tml_elements":["nVarNumber","nVarValue","nVarDigits"],"nVarDigits":5,"nVarNumber":1,"nVarValue":308.15},{"nVarValue":21000,"tml_elements":["nVarNumber","nVarValue","nVarDigits"],"nVarDigits":2,"nVarNumber":2}],"tml_elements":["VariableValue","PropertyValue"],"PropertyValue":[{"tml_elements":["nPropNumber","nPropValue","nPropDigits","CombinedUncertainty"],"nPropNumber":1,"nPropDigits":3,"CombinedUncertainty":{"tml_elements":["nCombUncertAssessNum","nCombExpandUncertValue"],"nCombExpandUncertValue":1.5e-05,"nCombUncertAssessNum":1},"nPropValue":0.000152}]},{"tml_elements":["VariableValue","PropertyValue"],"PropertyValue":[{"CombinedUncertainty":{"tml_elements":["nCombUncertAssessNum","nCombExpandUncertValue"],"nCombExpandUncertValue":1.9e-05,"nCombUncertAssessNum":1},"nPropValue":0.000189,"tml_elements":["nPropNumber","nPropValue","nPropDigits","CombinedUncertainty"],"nPropNumber":1,"nPropDigits":3}],"VariableValue":[{"nVarDigits":5,"tml_elements":["nVarNumber","nVarValue","nVarDigits"],"nVarNumber":1,"nVarValue":308.15},{"nVarValue":24000,"nVarDigits":2,"tml_elements":["nVarNumber","nVarValue","nVarDigits"],"nVarNumber":2}]},{"VariableValue":[{"nVarNumber":1,"nVarDigits":5,"tml_elements":["nVarNumber","nVarValue","nVarDigits"],"nVarValue":318.15},{"nVarValue":13000,"nVarNumber":2,"tml_elements":["nVarNumber","nVarValue","nVarDigits"],"nVarDigits":2}],"PropertyValue":[{"nPropValue":7.4e-05,"CombinedUncertainty":{"nCombUncertAssessNum":1,"tml_elements":["nCombUncertAssessNum","nCombExpandUncertValue"],"nCombExpandUncertValue":8e-06},"nPropNumber":1,"nPropDigits":2,"tml_elements":["nPropNumber","nPropValue","nPropDigits","CombinedUncertainty"]}],"tml_elements":["VariableValue","PropertyValue"]},{"PropertyValue":[{"nPropNumber":1,"nPropDigits":3,"tml_elements":["nPropNumber","nPropValue","nPropDigits","CombinedUncertainty"],"CombinedUncertainty":{"nCombExpandUncertValue":1.4e-05,"tml_elements":["nCombUncertAssessNum","nCombExpandUncertValue"],"nCombUncertAssessNum":1},"nPropValue":0.000133}],"tml_elements":["VariableValue","PropertyValue"],"VariableValue":[{"nVarValue":318.15,"nVarNumber":1,"nVarDigits":5,"tml_elements":["nVarNumber","nVarValue","nVarDigits"]},{"nVarDigits":2,"tml_elements":["nVarNumber","nVarValue","nVarDigits"],"nVarNumber":2,"nVarValue":16000}]},{"VariableValue":[{"nVarValue":318.15,"nVarNumber":1,"tml_elements":["nVarNumber","nVarValue","nVarDigits"],"nVarDigits":5},{"nVarNumber":2,"nVarDigits":2,"tml_elements":["nVarNumber","nVarValue","nVarDigits"],"nVarValue":18000}],"tml_elements":["VariableValue","PropertyValue"],"PropertyValue":[{"tml_elements":["nPropNumber","nPropValue","nPropDigits","CombinedUncertainty"],"nPropDigits":3,"nPropNumber":1,"CombinedUncertainty":{"nCombUncertAssessNum":1,"nCombExpandUncertValue":2e-05,"tml_elements":["nCombUncertAssessNum","nCombExpandUncertValue"]},"nPropValue":0.00018}]},{"VariableValue":[{"nVarValue":318.15,"nVarDigits":5,"tml_elements":["nVarNumber","nVarValue","nVarDigits"],"nVarNumber":1},{"nVarValue":21000,"nVarNumber":2,"tml_elements":["nVarNumber","nVarValue","nVarDigits"],"nVarDigits":2}],"PropertyValue":[{"nPropDigits":3,"nPropNumber":1,"tml_elements":["nPropNumber","nPropValue","nPropDigits","CombinedUncertainty"],"CombinedUncertainty":{"nCombUncertAssessNum":1,"nCombExpandUncertValue":2.4e-05,"tml_elements":["nCombUncertAssessNum","nCombExpandUncertValue"]},"nPropValue":0.000234}],"tml_elements":["VariableValue","PropertyValue"]},{"tml_elements":["VariableValue","PropertyValue"],"PropertyValue":[{"nPropValue":0.000312,"CombinedUncertainty":{"tml_elements":["nCombUncertAssessNum","nCombExpandUncertValue"],"nCombExpandUncertValue":3.1e-05,"nCombUncertAssessNum":1},"nPropNumber":1,"nPropDigits":3,"tml_elements":["nPropNumber","nPropValue","nPropDigits","CombinedUncertainty"]}],"VariableValue":[{"nVarDigits":5,"tml_elements":["nVarNumber","nVarValue","nVarDigits"],"nVarNumber":1,"nVarValue":318.15},{"nVarNumber":2,"nVarDigits":2,"tml_elements":["nVarNumber","nVarValue","nVarDigits"],"nVarValue":24000}]},{"tml_elements":["VariableValue","PropertyValue"],"PropertyValue":[{"nPropNumber":1,"nPropDigits":2,"tml_elements":["nPropNumber","nPropValue","nPropDigits","CombinedUncertainty"],"nPropValue":1.6e-05,"CombinedUncertainty":{"nCombUncertAssessNum":1,"tml_elements":["nCombUncertAssessNum","nCombExpandUncertValue"],"nCombExpandUncertValue":4e-06}}],"VariableValue":[{"nVarValue":328.15,"nVarDigits":5,"tml_elements":["nVarNumber","nVarValue","nVarDigits"],"nVarNumber":1},{"nVarNumber":2,"nVarDigits":2,"tml_elements":["nVarNumber","nVarValue","nVarDigits"],"nVarValue":12000}]},{"tml_elements":["VariableValue","PropertyValue"],"PropertyValue":[{"CombinedUncertainty":{"nCombExpandUncertValue":6e-06,"tml_elements":["nCombUncertAssessNum","nCombExpandUncertValue"],"nCombUncertAssessNum":1},"nPropValue":5.9e-05,"tml_elements":["nPropNumber","nPropValue","nPropDigits","CombinedUncertainty"],"nPropNumber":1,"nPropDigits":2}],"VariableValue":[{"nVarValue":328.15,"nVarDigits":5,"tml_elements":["nVarNumber","nVarValue","nVarDigits"],"nVarNumber":1},{"nVarValue":14000,"tml_elements":["nVarNumber","nVarValue","nVarDigits"],"nVarDigits":2,"nVarNumber":2}]},{"PropertyValue":[{"CombinedUncertainty":{"nCombUncertAssessNum":1,"nCombExpandUncertValue":1.1e-05,"tml_elements":["nCombUncertAssessNum","nCombExpandUncertValue"]},"nPropValue":0.000109,"nPropDigits":3,"nPropNumber":1,"tml_elements":["nPropNumber","nPropValue","nPropDigits","CombinedUncertainty"]}],"tml_elements":["VariableValue","PropertyValue"],"VariableValue":[{"nVarValue":328.15,"tml_elements":["nVarNumber","nVarValue","nVarDigits"],"nVarDigits":5,"nVarNumber":1},{"nVarNumber":2,"nVarDigits":2,"tml_elements":["nVarNumber","nVarValue","nVarDigits"],"nVarValue":16000}]},{"PropertyValue":[{"tml_elements":["nPropNumber","nPropValue","nPropDigits","CombinedUncertainty"],"nPropNumber":1,"nPropDigits":3,"CombinedUncertainty":{"nCombUncertAssessNum":1,"nCombExpandUncertValue":1.8e-05,"tml_elements":["nCombUncertAssessNum","nCombExpandUncertValue"]},"nPropValue":0.00018}],"tml_elements":["VariableValue","PropertyValue"],"VariableValue":[{"nVarNumber":1,"tml_elements":["nVarNumber","nVarValue","nVarDigits"],"nVarDigits":5,"nVarValue":328.15},{"nVarValue":18000,"nVarDigits":2,"tml_elements":["nVarNumber","nVarValue","nVarDigits"],"nVarNumber":2}]},{"tml_elements":["VariableValue","PropertyValue"],"PropertyValue":[{"tml_elements":["nPropNumber","nPropValue","nPropDigits","CombinedUncertainty"],"nPropNumber":1,"nPropDigits":3,"CombinedUncertainty":{"tml_elements":["nCombUncertAssessNum","nCombExpandUncertValue"],"nCombExpandUncertValue":2.6e-05,"nCombUncertAssessNum":1},"nPropValue":0.000261}],"VariableValue":[{"nVarValue":328.15,"nVarNumber":1,"tml_elements":["nVarNumber","nVarValue","nVarDigits"],"nVarDigits":5},{"tml_elements":["nVarNumber","nVarValue","nVarDigits"],"nVarDigits":2,"nVarNumber":2,"nVarValue":21000}]},{"VariableValue":[{"nVarDigits":5,"tml_elements":["nVarNumber","nVarValue","nVarDigits"],"nVarNumber":1,"nVarValue":328.15},{"nVarNumber":2,"nVarDigits":2,"tml_elements":["nVarNumber","nVarValue","nVarDigits"],"nVarValue":24000}],"PropertyValue":[{"nPropValue":0.00035,"CombinedUncertainty":{"nCombExpandUncertValue":3.5e-05,"tml_elements":["nCombUncertAssessNum","nCombExpandUncertValue"],"nCombUncertAssessNum":1},"nPropNumber":1,"nPropDigits":3,"tml_elements":["nPropNumber","nPropValue","nPropDigits","CombinedUncertainty"]}],"tml_elements":["VariableValue","PropertyValue"]}],"dateDateAdded":"11/4/2008","nPureOrMixtureDataNumber":3,"sCompiler":"KRP","Property":[{"ePresentation":"Direct value, X","tml_elements":["nPropNumber","Property-MethodID","PropPhaseID","ePresentation","CombinedUncertainty"],"Property-MethodID":{"tml_elements":["PropertyGroup","RegNum"],"PropertyGroup":{"tml_elements":["CompositionAtPhaseEquilibrium"],"CompositionAtPhaseEquilibrium":{"tml_elements":["ePropName","eMethodName"],"eMethodName":"Chromatography","ePropName":"Mole fraction"}},"RegNum":{"tml_elements":["nOrgNum"],"nOrgNum":3}},"PropPhaseID":{"ePropPhase":"Fluid (supercritical or subcritical phases)","tml_elements":["ePropPhase"]},"nPropNumber":1,"CombinedUncertainty":{"nCombUncertLevOfConfid":95,"eCombUncertEvalMethod":"Propagation of evaluated standard uncertainties","tml_elements":["nCombUncertAssessNum","sCombUncertEvaluator","eCombUncertEvalMethod","nCombUncertLevOfConfid"],"sCombUncertEvaluator":"Data file compiler","nCombUncertAssessNum":1}}],"eExpPurpose":"Principal objective of the work","Variable":[{"nVarNumber":1,"VarPhaseID":{"eVarPhase":"Fluid (supercritical or subcritical phases)","tml_elements":["eVarPhase"]},"tml_elements":["nVarNumber","VariableID","VarPhaseID"],"VariableID":{"VariableType":{"tml_elements":["eTemperature"],"eTemperature":"Temperature, K"},"tml_elements":["VariableType"]}},{"VariableID":{"VariableType":{"ePressure":"Pressure, kPa","tml_elements":["ePressure"]},"tml_elements":["VariableType"]},"VarPhaseID":{"tml_elements":["eVarPhase"],"eVarPhase":"Fluid (supercritical or subcritical phases)"},"nVarNumber":2,"tml_elements":["nVarNumber","VariableID","VarPhaseID"]}],"Component":[{"RegNum":{"tml_elements":["nOrgNum"],"nOrgNum":1},"nSampleNm":1,"tml_elements":["RegNum","nSampleNm"]},{"tml_elements":["RegNum","nSampleNm"],"nSampleNm":1,"RegNum":{"tml_elements":["nOrgNum"],"nOrgNum":3}},{"RegNum":{"nOrgNum":2,"tml_elements":["nOrgNum"]},"nSampleNm":1,"tml_elements":["RegNum","nSampleNm"]}],"sContributor":"TRC","tml_elements":["nPureOrMixtureDataNumber","Component","eExpPurpose","sCompiler","sContributor","dateDateAdded","Property","PhaseID","Variable","NumValues"],"PhaseID":[{"tml_elements":["ePhase"],"ePhase":"Fluid (supercritical or subcritical phases)"},{"RegNum":{"tml_elements":["nOrgNum"],"nOrgNum":2},"tml_elements":["ePhase","RegNum"],"ePhase":"Crystal"},{"ePhase":"Crystal","tml_elements":["ePhase","RegNum"],"RegNum":{"tml_elements":["nOrgNum"],"nOrgNum":3}}]},{"dateDateAdded":"11/4/2008","nPureOrMixtureDataNumber":4,"sCompiler":"KRP","NumValues":[{"tml_elements":["VariableValue","PropertyValue"],"PropertyValue":[{"tml_elements":["nPropNumber","nPropValue","nPropDigits","CombinedUncertainty"],"nPropDigits":2,"nPropNumber":1,"nPropValue":6.6e-06,"CombinedUncertainty":{"nCombUncertAssessNum":1,"tml_elements":["nCombUncertAssessNum","nCombExpandUncertValue"],"nCombExpandUncertValue":7e-07}}],"VariableValue":[{"nVarValue":308.15,"nVarDigits":5,"tml_elements":["nVarNumber","nVarValue","nVarDigits"],"nVarNumber":1},{"nVarValue":12000,"nVarDigits":2,"tml_elements":["nVarNumber","nVarValue","nVarDigits"],"nVarNumber":2}]},{"VariableValue":[{"nVarValue":308.15,"nVarNumber":1,"nVarDigits":5,"tml_elements":["nVarNumber","nVarValue","nVarDigits"]},{"nVarValue":14000,"nVarNumber":2,"tml_elements":["nVarNumber","nVarValue","nVarDigits"],"nVarDigits":2}],"PropertyValue":[{"nPropValue":7.1e-06,"CombinedUncertainty":{"nCombUncertAssessNum":1,"tml_elements":["nCombUncertAssessNum","nCombExpandUncertValue"],"nCombExpandUncertValue":8e-07},"nPropNumber":1,"nPropDigits":2,"tml_elements":["nPropNumber","nPropValue","nPropDigits","CombinedUncertainty"]}],"tml_elements":["VariableValue","PropertyValue"]},{"VariableValue":[{"tml_elements":["nVarNumber","nVarValue","nVarDigits"],"nVarDigits":5,"nVarNumber":1,"nVarValue":308.15},{"nVarValue":16000,"nVarNumber":2,"nVarDigits":2,"tml_elements":["nVarNumber","nVarValue","nVarDigits"]}],"tml_elements":["VariableValue","PropertyValue"],"PropertyValue":[{"nPropNumber":1,"nPropDigits":3,"tml_elements":["nPropNumber","nPropValue","nPropDigits","CombinedUncertainty"],"CombinedUncertainty":{"nCombUncertAssessNum":1,"nCombExpandUncertValue":1e-06,"tml_elements":["nCombUncertAssessNum","nCombExpandUncertValue"]},"nPropValue":1.02e-05}]},{"tml_elements":["VariableValue","PropertyValue"],"PropertyValue":[{"CombinedUncertainty":{"tml_elements":["nCombUncertAssessNum","nCombExpandUncertValue"],"nCombExpandUncertValue":1.6e-06,"nCombUncertAssessNum":1},"nPropValue":1.56e-05,"nPropNumber":1,"nPropDigits":3,"tml_elements":["nPropNumber","nPropValue","nPropDigits","CombinedUncertainty"]}],"VariableValue":[{"nVarNumber":1,"tml_elements":["nVarNumber","nVarValue","nVarDigits"],"nVarDigits":5,"nVarValue":308.15},{"nVarDigits":2,"tml_elements":["nVarNumber","nVarValue","nVarDigits"],"nVarNumber":2,"nVarValue":18000}]},{"PropertyValue":[{"nPropNumber":1,"nPropDigits":3,"tml_elements":["nPropNumber","nPropValue","nPropDigits","CombinedUncertainty"],"CombinedUncertainty":{"nCombUncertAssessNum":1,"nCombExpandUncertValue":1.7e-06,"tml_elements":["nCombUncertAssessNum","nCombExpandUncertValue"]},"nPropValue":1.68e-05}],"tml_elements":["VariableValue","PropertyValue"],"VariableValue":[{"nVarValue":308.15,"nVarNumber":1,"nVarDigits":5,"tml_elements":["nVarNumber","nVarValue","nVarDigits"]},{"nVarNumber":2,"nVarDigits":2,"tml_elements":["nVarNumber","nVarValue","nVarDigits"],"nVarValue":21000}]},{"tml_elements":["VariableValue","PropertyValue"],"PropertyValue":[{"tml_elements":["nPropNumber","nPropValue","nPropDigits","CombinedUncertainty"],"nPropNumber":1,"nPropDigits":3,"CombinedUncertainty":{"nCombUncertAssessNum":1,"tml_elements":["nCombUncertAssessNum","nCombExpandUncertValue"],"nCombExpandUncertValue":1.8e-06},"nPropValue":1.82e-05}],"VariableValue":[{"nVarValue":308.15,"nVarNumber":1,"tml_elements":["nVarNumber","nVarValue","nVarDigits"],"nVarDigits":5},{"nVarDigits":2,"tml_elements":["nVarNumber","nVarValue","nVarDigits"],"nVarNumber":2,"nVarValue":24000}]},{"tml_elements":["VariableValue","PropertyValue"],"PropertyValue":[{"nPropValue":5.8e-06,"CombinedUncertainty":{"tml_elements":["nCombUncertAssessNum","nCombExpandUncertValue"],"nCombExpandUncertValue":6e-07,"nCombUncertAssessNum":1},"nPropDigits":2,"nPropNumber":1,"tml_elements":["nPropNumber","nPropValue","nPropDigits","CombinedUncertainty"]}],"VariableValue":[{"nVarValue":318.15,"nVarDigits":5,"tml_elements":["nVarNumber","nVarValue","nVarDigits"],"nVarNumber":1},{"tml_elements":["nVarNumber","nVarValue","nVarDigits"],"nVarDigits":2,"nVarNumber":2,"nVarValue":13000}]},{"PropertyValue":[{"tml_elements":["nPropNumber","nPropValue","nPropDigits","CombinedUncertainty"],"nPropNumber":1,"nPropDigits":3,"CombinedUncertainty":{"nCombUncertAssessNum":1,"nCombExpandUncertValue":1.3e-06,"tml_elements":["nCombUncertAssessNum","nCombExpandUncertValue"]},"nPropValue":1.32e-05}],"tml_elements":["VariableValue","PropertyValue"],"VariableValue":[{"nVarValue":318.15,"nVarNumber":1,"nVarDigits":5,"tml_elements":["nVarNumber","nVarValue","nVarDigits"]},{"nVarNumber":2,"tml_elements":["nVarNumber","nVarValue","nVarDigits"],"nVarDigits":2,"nVarValue":16000}]},{"tml_elements":["VariableValue","PropertyValue"],"PropertyValue":[{"nPropValue":1.72e-05,"CombinedUncertainty":{"nCombUncertAssessNum":1,"nCombExpandUncertValue":1.7e-06,"tml_elements":["nCombUncertAssessNum","nCombExpandUncertValue"]},"tml_elements":["nPropNumber","nPropValue","nPropDigits","CombinedUncertainty"],"nPropNumber":1,"nPropDigits":3}],"VariableValue":[{"nVarValue":318.15,"nVarNumber":1,"nVarDigits":5,"tml_elements":["nVarNumber","nVarValue","nVarDigits"]},{"nVarValue":18000,"nVarDigits":2,"tml_elements":["nVarNumber","nVarValue","nVarDigits"],"nVarNumber":2}]},{"tml_elements":["VariableValue","PropertyValue"],"PropertyValue":[{"nPropNumber":1,"nPropDigits":3,"tml_elements":["nPropNumber","nPropValue","nPropDigits","CombinedUncertainty"],"nPropValue":2.22e-05,"CombinedUncertainty":{"tml_elements":["nCombUncertAssessNum","nCombExpandUncertValue"],"nCombExpandUncertValue":2.2e-06,"nCombUncertAssessNum":1}}],"VariableValue":[{"nVarValue":318.15,"nVarNumber":1,"tml_elements":["nVarNumber","nVarValue","nVarDigits"],"nVarDigits":5},{"nVarDigits":2,"tml_elements":["nVarNumber","nVarValue","nVarDigits"],"nVarNumber":2,"nVarValue":21000}]},{"VariableValue":[{"nVarDigits":5,"tml_elements":["nVarNumber","nVarValue","nVarDigits"],"nVarNumber":1,"nVarValue":318.15},{"nVarDigits":2,"tml_elements":["nVarNumber","nVarValue","nVarDigits"],"nVarNumber":2,"nVarValue":24000}],"PropertyValue":[{"CombinedUncertainty":{"nCombUncertAssessNum":1,"nCombExpandUncertValue":3e-06,"tml_elements":["nCombUncertAssessNum","nCombExpandUncertValue"]},"nPropValue":3.02e-05,"tml_elements":["nPropNumber","nPropValue","nPropDigits","CombinedUncertainty"],"nPropNumber":1,"nPropDigits":3}],"tml_elements":["VariableValue","PropertyValue"]},{"VariableValue":[{"tml_elements":["nVarNumber","nVarValue","nVarDigits"],"nVarDigits":5,"nVarNumber":1,"nVarValue":328.15},{"nVarValue":12000,"nVarDigits":2,"tml_elements":["nVarNumber","nVarValue","nVarDigits"],"nVarNumber":2}],"tml_elements":["VariableValue","PropertyValue"],"PropertyValue":[{"nPropValue":1.2e-06,"CombinedUncertainty":{"nCombUncertAssessNum":1,"nCombExpandUncertValue":2e-07,"tml_elements":["nCombUncertAssessNum","nCombExpandUncertValue"]},"tml_elements":["nPropNumber","nPropValue","nPropDigits","CombinedUncertainty"],"nPropDigits":2,"nPropNumber":1}]},{"tml_elements":["VariableValue","PropertyValue"],"PropertyValue":[{"nPropValue":4.9e-06,"CombinedUncertainty":{"tml_elements":["nCombUncertAssessNum","nCombExpandUncertValue"],"nCombExpandUncertValue":6e-07,"nCombUncertAssessNum":1},"nPropNumber":1,"nPropDigits":2,"tml_elements":["nPropNumber","nPropValue","nPropDigits","CombinedUncertainty"]}],"VariableValue":[{"nVarNumber":1,"tml_elements":["nVarNumber","nVarValue","nVarDigits"],"nVarDigits":5,"nVarValue":328.15},{"nVarValue":14000,"nVarNumber":2,"nVarDigits":2,"tml_elements":["nVarNumber","nVarValue","nVarDigits"]}]},{"PropertyValue":[{"nPropDigits":3,"nPropNumber":1,"tml_elements":["nPropNumber","nPropValue","nPropDigits","CombinedUncertainty"],"CombinedUncertainty":{"tml_elements":["nCombUncertAssessNum","nCombExpandUncertValue"],"nCombExpandUncertValue":1.1e-06,"nCombUncertAssessNum":1},"nPropValue":1.04e-05}],"tml_elements":["VariableValue","PropertyValue"],"VariableValue":[{"tml_elements":["nVarNumber","nVarValue","nVarDigits"],"nVarDigits":5,"nVarNumber":1,"nVarValue":328.15},{"nVarValue":16000,"nVarDigits":2,"tml_elements":["nVarNumber","nVarValue","nVarDigits"],"nVarNumber":2}]},{"PropertyValue":[{"tml_elements":["nPropNumber","nPropValue","nPropDigits","CombinedUncertainty"],"nPropNumber":1,"nPropDigits":3,"CombinedUncertainty":{"nCombUncertAssessNum":1,"tml_elements":["nCombUncertAssessNum","nCombExpandUncertValue"],"nCombExpandUncertValue":2.2e-06},"nPropValue":1.74e-05}],"tml_elements":["VariableValue","PropertyValue"],"VariableValue":[{"nVarValue":328.15,"tml_elements":["nVarNumber","nVarValue","nVarDigits"],"nVarDigits":5,"nVarNumber":1},{"nVarValue":18000,"nVarDigits":2,"tml_elements":["nVarNumber","nVarValue","nVarDigits"],"nVarNumber":2}]},{"VariableValue":[{"nVarValue":328.15,"tml_elements":["nVarNumber","nVarValue","nVarDigits"],"nVarDigits":5,"nVarNumber":1},{"nVarValue":21000,"nVarNumber":2,"tml_elements":["nVarNumber","nVarValue","nVarDigits"],"nVarDigits":2}],"PropertyValue":[{"tml_elements":["nPropNumber","nPropValue","nPropDigits","CombinedUncertainty"],"nPropNumber":1,"nPropDigits":3,"nPropValue":2.7e-05,"CombinedUncertainty":{"tml_elements":["nCombUncertAssessNum","nCombExpandUncertValue"],"nCombExpandUncertValue":2.7e-06,"nCombUncertAssessNum":1}}],"tml_elements":["VariableValue","PropertyValue"]},{"PropertyValue":[{"CombinedUncertainty":{"nCombUncertAssessNum":1,"nCombExpandUncertValue":4e-06,"tml_elements":["nCombUncertAssessNum","nCombExpandUncertValue"]},"nPropValue":3.98e-05,"tml_elements":["nPropNumber","nPropValue","nPropDigits","CombinedUncertainty"],"nPropNumber":1,"nPropDigits":3}],"tml_elements":["VariableValue","PropertyValue"],"VariableValue":[{"nVarValue":328.15,"nVarNumber":1,"tml_elements":["nVarNumber","nVarValue","nVarDigits"],"nVarDigits":5},{"nVarNumber":2,"tml_elements":["nVarNumber","nVarValue","nVarDigits"],"nVarDigits":2,"nVarValue":24000}]}],"Property":[{"CombinedUncertainty":{"sCombUncertEvaluator":"Data file compiler","nCombUncertAssessNum":1,"eCombUncertEvalMethod":"Propagation of evaluated standard uncertainties","nCombUncertLevOfConfid":95,"tml_elements":["nCombUncertAssessNum","sCombUncertEvaluator","eCombUncertEvalMethod","nCombUncertLevOfConfid"]},"Property-MethodID":{"RegNum":{"tml_elements":["nOrgNum"],"nOrgNum":2},"tml_elements":["PropertyGroup","RegNum"],"PropertyGroup":{"tml_elements":["CompositionAtPhaseEquilibrium"],"CompositionAtPhaseEquilibrium":{"tml_elements":["ePropName","eMethodName"],"ePropName":"Mole fraction","eMethodName":"Chromatography"}}},"PropPhaseID":{"tml_elements":["ePropPhase"],"ePropPhase":"Fluid (supercritical or subcritical phases)"},"nPropNumber":1,"ePresentation":"Direct value, X","tml_elements":["nPropNumber","Property-MethodID","PropPhaseID","ePresentation","CombinedUncertainty"]}],"eExpPurpose":"Principal objective of the work","Variable":[{"VariableID":{"tml_elements":["VariableType"],"VariableType":{"tml_elements":["eTemperature"],"eTemperature":"Temperature, K"}},"tml_elements":["nVarNumber","VariableID","VarPhaseID"],"VarPhaseID":{"tml_elements":["eVarPhase"],"eVarPhase":"Fluid (supercritical or subcritical phases)"},"nVarNumber":1},{"VariableID":{"tml_elements":["VariableType"],"VariableType":{"ePressure":"Pressure, kPa","tml_elements":["ePressure"]}},"VarPhaseID":{"tml_elements":["eVarPhase"],"eVarPhase":"Fluid (supercritical or subcritical phases)"},"nVarNumber":2,"tml_elements":["nVarNumber","VariableID","VarPhaseID"]}],"Component":[{"RegNum":{"nOrgNum":1,"tml_elements":["nOrgNum"]},"nSampleNm":1,"tml_elements":["RegNum","nSampleNm"]},{"tml_elements":["RegNum","nSampleNm"],"RegNum":{"tml_elements":["nOrgNum"],"nOrgNum":3},"nSampleNm":1},{"nSampleNm":1,"RegNum":{"tml_elements":["nOrgNum"],"nOrgNum":2},"tml_elements":["RegNum","nSampleNm"]}],"sContributor":"TRC","tml_elements":["nPureOrMixtureDataNumber","Component","eExpPurpose","sCompiler","sContributor","dateDateAdded","Property","PhaseID","Variable","NumValues"],"PhaseID":[{"ePhase":"Fluid (supercritical or subcritical phases)","tml_elements":["ePhase"]},{"ePhase":"Crystal","tml_elements":["ePhase","RegNum"],"RegNum":{"nOrgNum":2,"tml_elements":["nOrgNum"]}},{"ePhase":"Crystal","tml_elements":["ePhase","RegNum"],"RegNum":{"tml_elements":["nOrgNum"],"nOrgNum":3}}]}],"tml_elements":["Version","Citation","Compound","PureOrMixtureData"],"Compound":[{"sStandardInChIKey":"CURLTUGMZLYLDI-UHFFFAOYSA-N","RegNum":{"nOrgNum":1,"tml_elements":["nOrgNum"]},"sStandardInChI":"InChI=1S/CO2/c2-1-3","Sample":[{"purity":[{"nUnknownPerCent":99.8,"nUnknownPerCentDigits":3,"tml_elements":["nStep","nUnknownPerCent","nUnknownPerCentDigits","eAnalMeth"],"nStep":1,"eAnalMeth":["Not known"]},{"tml_elements":["nStep","ePurifMethod"],"nStep":2,"ePurifMethod":["None used"]}],"tml_elements":["nSampleNm","eSource","purity"],"nSampleNm":1,"eSource":"Not stated in the document"}],"tml_elements":["RegNum","sStandardInChI","sStandardInChIKey","sCommonName","sFormulaMolec","Sample"],"sCommonName":["carbon dioxide"],"sFormulaMolec":"CO2"},{"sFormulaMolec":"C34H50O2","Sample":[{"eSource":"Commercial source","nSampleNm":1,"tml_elements":["nSampleNm","eSource","purity"],"purity":[{"nUnknownPerCentDigits":2,"nUnknownPerCent":99,"eAnalMeth":["Stated by supplier"],"nStep":1,"tml_elements":["nStep","nUnknownPerCent","nUnknownPerCentDigits","eAnalMeth"]},{"ePurifMethod":["None used"],"nStep":2,"tml_elements":["nStep","ePurifMethod"]}]}],"sCommonName":["3.beta.-benzoyloxycholest-5-ene","cholesteryl benzoate"],"tml_elements":["RegNum","sStandardInChI","sStandardInChIKey","sCommonName","sFormulaMolec","Sample"],"sStandardInChIKey":"UVZUFUGNHDDLRQ-LLHZKFLPSA-N","sStandardInChI":"InChI=1S/C34H50O2/c1-23(2)10-9-11-24(3)29-16-17-30-28-15-14-26-22-27(36-32(35)25-12-7-6-8-13-25)18-20-33(26,4)31(28)19-21-34(29,30)5/h6-8,12-14,23-24,27-31H,9-11,15-22H2,1-5H3/t24-,27+,28+,29-,30+,31+,33+,34-/m1/s1","RegNum":{"tml_elements":["nOrgNum"],"nOrgNum":2}},{"RegNum":{"nOrgNum":3,"tml_elements":["nOrgNum"]},"sStandardInChI":"InChI=1S/C31H52O2/c1-7-9-29(32)33-24-16-18-30(5)23(20-24)12-13-25-27-15-14-26(22(4)11-8-10-21(2)3)31(27,6)19-17-28(25)30/h12,21-22,24-28H,7-11,13-20H2,1-6H3/t22-,24+,25+,26-,27+,28+,30+,31-/m1/s1","sStandardInChIKey":"CKDZWMVGDHGMFR-GTPODGLVSA-N","tml_elements":["RegNum","sStandardInChI","sStandardInChIKey","sCommonName","sFormulaMolec","Sample"],"Sample":[{"eSource":"Commercial source","nSampleNm":1,"purity":[{"nStep":1,"tml_elements":["nStep","nUnknownPerCent","nUnknownPerCentDigits","eAnalMeth"],"eAnalMeth":["Stated by supplier"],"nUnknownPerCentDigits":2,"nUnknownPerCent":98},{"tml_elements":["nStep","ePurifMethod"],"nStep":2,"ePurifMethod":["None used"]}],"tml_elements":["nSampleNm","eSource","purity"]}],"sCommonName":["3.beta.-butanoyloxycholest-5-ene","butyric acid, cholesteryl ester","cholest-5-en-3-ol (3.beta.)-, butanoate","cholesterol 3-butyrate","cholesterol butanoate","cholesterol, butyrate","cholesteryl butanoate","cholesteryl butyrate"],"sFormulaMolec":"C31H52O2"}],"THERMOML_MD5_CHECKSUM":"48d712b84e998fecc3d4c9f82084ab72","Citation":{"eType":"journal","sVol":"272","sPage":"8-17","yrPubYr":"2008","sPubName":"Fluid Phase Equilib.","dateCit":"2020-09-29","sIDNum":"1-2","tml_elements":["TRCRefID","eType","eSourceType","sAuthor","sPubName","yrPubYr","dateCit","sTitle","sAbstract","sKeyword","sDOI","sIDNum","sVol","sPage"],"sAuthor":["Huang, Z.[Zhen]","Feng, M.[Mei]","Guo, Y.[Yuhua]","Su, J.[Junfeng]","Teng, L.[Lijun]","Liu, T.[Tieyan]","Chiew, Y. C.[Yee C.]"],"sKeyword":["Solubility diminution","Mixed solids","Cholesteryl benzoate (CBE)","Cholesteryl butyrate (CBU)","Supercritical carbon dioxide"],"TRCRefID":{"yrYrPub":"2008","tml_elements":["yrYrPub","sAuthor1","sAuthor2","nAuthorn"],"nAuthorn":"0","sAuthor2":"fen","sAuthor1":"hua"},"sAbstract":"The solubilities of equal-mass mixed cholesteryl benzoate (CBE) and cholesteryl butyrate (CBU) in supercritical  carbon dioxide were determined at 308.15, 318.15 and 328.15 K, and over pressure ranging from  12.0 to 24.0MPa. The solubility of both solutes in the ternary system is observed to decrease relative to  the value of the corresponding binary system. As compared with their respective binary system, the CBU  ternary solubility decreases greatly by around 65% and the CBE one does by approximately 10%. These  uncommon observations may be related to their similar chemical structures. The selectivity of supercritical  CO2 to the solid mixture is found to decrease as extraction temperature or pressure increases.  Separation of the equal-mass mixed solids could result in over 90% pure CBU. The Peng Robinson equation  of state and four empirical density-based models are used to correlate the ternary solubility data.  These models generally perform very well with a global average absolute relative deviation less than 10%.  The fugacity calculations show that either CBU or CBE has lower fugacity in the ternary system than in  the binary system, possibly responsible for the solubility diminution found in the ternary system.","sDOI":"10.1016/j.fluid.2008.07.012","sTitle":"Ternary solubility of mixed cholesteryl esters in supercritical carbon dioxide","eSourceType":"Original"},"Version":{"tml_elements":["nVersionMajor","nVersionMinor"],"nVersionMajor":2,"nVersionMinor":0}}