{"Version":{"tml_elements":["nVersionMajor","nVersionMinor"],"nVersionMinor":0,"nVersionMajor":2},"PureOrMixtureData":[{"sContributor":"JWM","PhaseID":[{"tml_elements":["ePhase"],"ePhase":"Liquid"},{"tml_elements":["ePhase"],"ePhase":"Gas"}],"tml_elements":["nPureOrMixtureDataNumber","Component","eExpPurpose","sCompiler","sContributor","dateDateAdded","Property","PhaseID","NumValues"],"Component":[{"RegNum":{"tml_elements":["nOrgNum"],"nOrgNum":1},"nSampleNm":1,"tml_elements":["RegNum","nSampleNm"]}],"sCompiler":"JWM","nPureOrMixtureDataNumber":1,"dateDateAdded":"11/3/2017","NumValues":[{"tml_elements":["PropertyValue"],"PropertyValue":[{"tml_elements":["nPropNumber","nPropValue","nPropDigits","CombinedUncertainty"],"nPropDigits":3,"nPropNumber":1,"nPropValue":628,"CombinedUncertainty":{"tml_elements":["nCombUncertAssessNum","nCombExpandUncertValue"],"nCombExpandUncertValue":6,"nCombUncertAssessNum":1}}],"VariableValue":[]}],"eExpPurpose":"Principal objective of the work","Property":[{"Property-MethodID":{"tml_elements":["PropertyGroup"],"PropertyGroup":{"Criticals":{"tml_elements":["ePropName","eMethodName"],"ePropName":"Critical temperature, K","eMethodName":"Resistive pulse heating"},"tml_elements":["Criticals"]}},"PropPhaseID":{"ePropPhase":"Liquid","tml_elements":["ePropPhase"]},"nPropNumber":1,"ePresentation":"Direct value, X","tml_elements":["nPropNumber","Property-MethodID","PropPhaseID","ePresentation","CombinedUncertainty"],"CombinedUncertainty":{"sCombUncertEvaluator":"Data file compiler","nCombUncertAssessNum":1,"eCombUncertEvalMethod":"Propagation of evaluated standard uncertainties","nCombUncertLevOfConfid":95,"tml_elements":["nCombUncertAssessNum","sCombUncertEvaluator","eCombUncertEvalMethod","nCombUncertLevOfConfid"]}}]},{"sContributor":"JWM","PhaseID":[{"tml_elements":["ePhase"],"ePhase":"Liquid"},{"ePhase":"Gas","tml_elements":["ePhase"]}],"tml_elements":["nPureOrMixtureDataNumber","Component","eExpPurpose","sCompiler","sContributor","dateDateAdded","Property","PhaseID","NumValues"],"Component":[{"nSampleNm":1,"RegNum":{"tml_elements":["nOrgNum"],"nOrgNum":1},"tml_elements":["RegNum","nSampleNm"]}],"sCompiler":"JWM","nPureOrMixtureDataNumber":2,"dateDateAdded":"5/8/2017","NumValues":[{"VariableValue":[],"PropertyValue":[{"nPropDigits":3,"nPropNumber":1,"tml_elements":["nPropNumber","nPropValue","nPropDigits","CombinedUncertainty"],"nPropValue":3810,"CombinedUncertainty":{"nCombUncertAssessNum":1,"tml_elements":["nCombUncertAssessNum","nCombExpandUncertValue"],"nCombExpandUncertValue":110}}],"tml_elements":["PropertyValue"]}],"eExpPurpose":"Principal objective of the work","Property":[{"Property-MethodID":{"tml_elements":["PropertyGroup"],"PropertyGroup":{"Criticals":{"ePropName":"Critical pressure, kPa","eMethodName":"Resistive pulse heating","tml_elements":["ePropName","eMethodName"]},"tml_elements":["Criticals"]}},"CombinedUncertainty":{"sCombUncertEvaluator":"Data file compiler","nCombUncertAssessNum":1,"nCombUncertLevOfConfid":95,"eCombUncertEvalMethod":"Propagation of evaluated standard uncertainties","tml_elements":["nCombUncertAssessNum","sCombUncertEvaluator","eCombUncertEvalMethod","nCombUncertLevOfConfid"]},"nPropNumber":1,"PropPhaseID":{"ePropPhase":"Liquid","tml_elements":["ePropPhase"]},"tml_elements":["nPropNumber","Property-MethodID","PropPhaseID","ePresentation","CombinedUncertainty"],"ePresentation":"Direct value, X"}]},{"eExpPurpose":"Principal objective of the work","Property":[{"ePresentation":"Direct value, X","tml_elements":["nPropNumber","Property-MethodID","PropPhaseID","ePresentation","CombinedUncertainty"],"PropPhaseID":{"ePropPhase":"Liquid","tml_elements":["ePropPhase"]},"Property-MethodID":{"PropertyGroup":{"tml_elements":["Criticals"],"Criticals":{"ePropName":"Critical temperature, K","eMethodName":"Resistive pulse heating","tml_elements":["ePropName","eMethodName"]}},"tml_elements":["PropertyGroup"]},"nPropNumber":1,"CombinedUncertainty":{"sCombUncertEvaluator":"Data file compiler","nCombUncertAssessNum":1,"nCombUncertLevOfConfid":95,"eCombUncertEvalMethod":"Propagation of evaluated standard uncertainties","tml_elements":["nCombUncertAssessNum","sCombUncertEvaluator","eCombUncertEvalMethod","nCombUncertLevOfConfid"]}}],"sCompiler":"JWM","dateDateAdded":"5/8/2017","nPureOrMixtureDataNumber":3,"NumValues":[{"PropertyValue":[{"nPropValue":651,"CombinedUncertainty":{"tml_elements":["nCombUncertAssessNum","nCombExpandUncertValue"],"nCombExpandUncertValue":7,"nCombUncertAssessNum":1},"nPropDigits":3,"nPropNumber":1,"tml_elements":["nPropNumber","nPropValue","nPropDigits","CombinedUncertainty"]}],"tml_elements":["PropertyValue"],"VariableValue":[]}],"PhaseID":[{"ePhase":"Liquid","tml_elements":["ePhase"]},{"tml_elements":["ePhase"],"ePhase":"Gas"}],"tml_elements":["nPureOrMixtureDataNumber","Component","eExpPurpose","sCompiler","sContributor","dateDateAdded","Property","PhaseID","NumValues"],"Component":[{"RegNum":{"tml_elements":["nOrgNum"],"nOrgNum":2},"nSampleNm":1,"tml_elements":["RegNum","nSampleNm"]}],"sContributor":"JWM"},{"sContributor":"JWM","PhaseID":[{"ePhase":"Liquid","tml_elements":["ePhase"]},{"ePhase":"Gas","tml_elements":["ePhase"]}],"tml_elements":["nPureOrMixtureDataNumber","Component","eExpPurpose","sCompiler","sContributor","dateDateAdded","Property","PhaseID","NumValues"],"Component":[{"tml_elements":["RegNum","nSampleNm"],"nSampleNm":1,"RegNum":{"nOrgNum":2,"tml_elements":["nOrgNum"]}}],"sCompiler":"JWM","nPureOrMixtureDataNumber":4,"dateDateAdded":"5/8/2017","NumValues":[{"VariableValue":[],"PropertyValue":[{"nPropNumber":1,"nPropDigits":3,"tml_elements":["nPropNumber","nPropValue","nPropDigits","CombinedUncertainty"],"nPropValue":4190,"CombinedUncertainty":{"tml_elements":["nCombUncertAssessNum","nCombExpandUncertValue"],"nCombExpandUncertValue":130,"nCombUncertAssessNum":1}}],"tml_elements":["PropertyValue"]}],"Property":[{"Property-MethodID":{"tml_elements":["PropertyGroup"],"PropertyGroup":{"tml_elements":["Criticals"],"Criticals":{"ePropName":"Critical pressure, kPa","eMethodName":"Resistive pulse heating","tml_elements":["ePropName","eMethodName"]}}},"CombinedUncertainty":{"eCombUncertEvalMethod":"Propagation of evaluated standard uncertainties","nCombUncertLevOfConfid":95,"tml_elements":["nCombUncertAssessNum","sCombUncertEvaluator","eCombUncertEvalMethod","nCombUncertLevOfConfid"],"sCombUncertEvaluator":"Data file compiler","nCombUncertAssessNum":1},"tml_elements":["nPropNumber","Property-MethodID","PropPhaseID","ePresentation","CombinedUncertainty"],"ePresentation":"Direct value, X","nPropNumber":1,"PropPhaseID":{"ePropPhase":"Liquid","tml_elements":["ePropPhase"]}}],"eExpPurpose":"Principal objective of the work"},{"NumValues":[{"VariableValue":[],"tml_elements":["PropertyValue"],"PropertyValue":[{"CombinedUncertainty":{"nCombUncertAssessNum":1,"nCombExpandUncertValue":7,"tml_elements":["nCombUncertAssessNum","nCombExpandUncertValue"]},"nPropValue":653,"tml_elements":["nPropNumber","nPropValue","nPropDigits","CombinedUncertainty"],"nPropNumber":1,"nPropDigits":3}]}],"dateDateAdded":"5/8/2017","nPureOrMixtureDataNumber":5,"sCompiler":"JWM","Property":[{"CombinedUncertainty":{"tml_elements":["nCombUncertAssessNum","sCombUncertEvaluator","eCombUncertEvalMethod","nCombUncertLevOfConfid"],"nCombUncertLevOfConfid":95,"eCombUncertEvalMethod":"Propagation of evaluated standard uncertainties","nCombUncertAssessNum":1,"sCombUncertEvaluator":"Data file compiler"},"ePresentation":"Direct value, X","tml_elements":["nPropNumber","Property-MethodID","PropPhaseID","ePresentation","CombinedUncertainty"],"Property-MethodID":{"tml_elements":["PropertyGroup"],"PropertyGroup":{"tml_elements":["Criticals"],"Criticals":{"tml_elements":["ePropName","eMethodName"],"eMethodName":"Resistive pulse heating","ePropName":"Critical temperature, K"}}},"PropPhaseID":{"ePropPhase":"Liquid","tml_elements":["ePropPhase"]},"nPropNumber":1}],"eExpPurpose":"Principal objective of the work","sContributor":"JWM","Component":[{"tml_elements":["RegNum","nSampleNm"],"RegNum":{"tml_elements":["nOrgNum"],"nOrgNum":3},"nSampleNm":1}],"tml_elements":["nPureOrMixtureDataNumber","Component","eExpPurpose","sCompiler","sContributor","dateDateAdded","Property","PhaseID","NumValues"],"PhaseID":[{"tml_elements":["ePhase"],"ePhase":"Liquid"},{"tml_elements":["ePhase"],"ePhase":"Gas"}]},{"eExpPurpose":"Principal objective of the work","Property":[{"Property-MethodID":{"tml_elements":["PropertyGroup"],"PropertyGroup":{"Criticals":{"tml_elements":["ePropName","eMethodName"],"ePropName":"Critical pressure, kPa","eMethodName":"Resistive pulse heating"},"tml_elements":["Criticals"]}},"CombinedUncertainty":{"nCombUncertLevOfConfid":95,"eCombUncertEvalMethod":"Propagation of evaluated standard uncertainties","tml_elements":["nCombUncertAssessNum","sCombUncertEvaluator","eCombUncertEvalMethod","nCombUncertLevOfConfid"],"sCombUncertEvaluator":"Data file compiler","nCombUncertAssessNum":1},"ePresentation":"Direct value, X","tml_elements":["nPropNumber","Property-MethodID","PropPhaseID","ePresentation","CombinedUncertainty"],"PropPhaseID":{"ePropPhase":"Liquid","tml_elements":["ePropPhase"]},"nPropNumber":1}],"sCompiler":"JWM","nPureOrMixtureDataNumber":6,"dateDateAdded":"5/8/2017","NumValues":[{"PropertyValue":[{"CombinedUncertainty":{"nCombExpandUncertValue":130,"tml_elements":["nCombUncertAssessNum","nCombExpandUncertValue"],"nCombUncertAssessNum":1},"nPropValue":4190,"nPropNumber":1,"nPropDigits":3,"tml_elements":["nPropNumber","nPropValue","nPropDigits","CombinedUncertainty"]}],"tml_elements":["PropertyValue"],"VariableValue":[]}],"PhaseID":[{"ePhase":"Liquid","tml_elements":["ePhase"]},{"ePhase":"Gas","tml_elements":["ePhase"]}],"tml_elements":["nPureOrMixtureDataNumber","Component","eExpPurpose","sCompiler","sContributor","dateDateAdded","Property","PhaseID","NumValues"],"Component":[{"nSampleNm":1,"RegNum":{"nOrgNum":3,"tml_elements":["nOrgNum"]},"tml_elements":["RegNum","nSampleNm"]}],"sContributor":"JWM"},{"eExpPurpose":"Principal objective of the work","Property":[{"PropPhaseID":{"ePropPhase":"Liquid","tml_elements":["ePropPhase"]},"nPropNumber":1,"ePresentation":"Direct value, X","tml_elements":["nPropNumber","Property-MethodID","PropPhaseID","ePresentation","CombinedUncertainty"],"CombinedUncertainty":{"nCombUncertAssessNum":1,"sCombUncertEvaluator":"Data file compiler","tml_elements":["nCombUncertAssessNum","sCombUncertEvaluator","eCombUncertEvalMethod","nCombUncertLevOfConfid"],"nCombUncertLevOfConfid":95,"eCombUncertEvalMethod":"Propagation of evaluated standard uncertainties"},"Property-MethodID":{"PropertyGroup":{"tml_elements":["Criticals"],"Criticals":{"tml_elements":["ePropName","eMethodName"],"eMethodName":"Resistive pulse heating","ePropName":"Critical temperature, K"}},"tml_elements":["PropertyGroup"]}}],"NumValues":[{"PropertyValue":[{"nPropValue":656,"CombinedUncertainty":{"nCombUncertAssessNum":1,"tml_elements":["nCombUncertAssessNum","nCombExpandUncertValue"],"nCombExpandUncertValue":7},"tml_elements":["nPropNumber","nPropValue","nPropDigits","CombinedUncertainty"],"nPropNumber":1,"nPropDigits":3}],"tml_elements":["PropertyValue"],"VariableValue":[]}],"dateDateAdded":"5/8/2017","nPureOrMixtureDataNumber":7,"sCompiler":"JWM","Component":[{"nSampleNm":1,"RegNum":{"tml_elements":["nOrgNum"],"nOrgNum":4},"tml_elements":["RegNum","nSampleNm"]}],"tml_elements":["nPureOrMixtureDataNumber","Component","eExpPurpose","sCompiler","sContributor","dateDateAdded","Property","PhaseID","NumValues"],"PhaseID":[{"tml_elements":["ePhase"],"ePhase":"Liquid"},{"ePhase":"Gas","tml_elements":["ePhase"]}],"sContributor":"JWM"},{"eExpPurpose":"Principal objective of the work","Property":[{"tml_elements":["nPropNumber","Property-MethodID","PropPhaseID","ePresentation","CombinedUncertainty"],"ePresentation":"Direct value, X","nPropNumber":1,"PropPhaseID":{"tml_elements":["ePropPhase"],"ePropPhase":"Liquid"},"CombinedUncertainty":{"sCombUncertEvaluator":"Data file compiler","nCombUncertAssessNum":1,"nCombUncertLevOfConfid":95,"eCombUncertEvalMethod":"Propagation of evaluated standard uncertainties","tml_elements":["nCombUncertAssessNum","sCombUncertEvaluator","eCombUncertEvalMethod","nCombUncertLevOfConfid"]},"Property-MethodID":{"PropertyGroup":{"tml_elements":["Criticals"],"Criticals":{"ePropName":"Critical pressure, kPa","eMethodName":"Resistive pulse heating","tml_elements":["ePropName","eMethodName"]}},"tml_elements":["PropertyGroup"]}}],"nPureOrMixtureDataNumber":8,"dateDateAdded":"5/8/2017","sCompiler":"JWM","NumValues":[{"VariableValue":[],"PropertyValue":[{"nPropValue":3250,"CombinedUncertainty":{"nCombUncertAssessNum":1,"nCombExpandUncertValue":100,"tml_elements":["nCombUncertAssessNum","nCombExpandUncertValue"]},"tml_elements":["nPropNumber","nPropValue","nPropDigits","CombinedUncertainty"],"nPropNumber":1,"nPropDigits":3}],"tml_elements":["PropertyValue"]}],"tml_elements":["nPureOrMixtureDataNumber","Component","eExpPurpose","sCompiler","sContributor","dateDateAdded","Property","PhaseID","NumValues"],"PhaseID":[{"ePhase":"Liquid","tml_elements":["ePhase"]},{"tml_elements":["ePhase"],"ePhase":"Gas"}],"Component":[{"tml_elements":["RegNum","nSampleNm"],"RegNum":{"tml_elements":["nOrgNum"],"nOrgNum":4},"nSampleNm":1}],"sContributor":"JWM"}],"tml_elements":["Version","Citation","Compound","PureOrMixtureData"],"Compound":[{"sStandardInChIKey":"NRGGMCIBEHEAIL-UHFFFAOYSA-N","RegNum":{"tml_elements":["nOrgNum"],"nOrgNum":1},"sStandardInChI":"InChI=1S/C7H9N/c1-2-7-5-3-4-6-8-7/h3-6H,2H2,1H3","sFormulaMolec":"C7H9N","Sample":[{"purity":[{"eAnalMeth":["Stated by supplier"],"nPurityMol":99.7,"tml_elements":["nStep","nPurityMol","nPurityMolDigits","eAnalMeth"],"nStep":1,"nPurityMolDigits":3}],"tml_elements":["nSampleNm","eSource","purity"],"eSource":"Commercial source","nSampleNm":1}],"sCommonName":["2-ethylpyridine","pyridine, 2-ethyl-"],"tml_elements":["RegNum","sStandardInChI","sStandardInChIKey","sCommonName","sFormulaMolec","Sample"]},{"sFormulaMolec":"C7H9N","sCommonName":["3-ethylpyridine","pyridine, 3-ethyl-"],"tml_elements":["RegNum","sStandardInChI","sStandardInChIKey","sCommonName","sFormulaMolec","Sample"],"Sample":[{"tml_elements":["nSampleNm","eSource","purity"],"purity":[{"nStep":1,"nPurityMolDigits":3,"tml_elements":["nStep","nPurityMol","nPurityMolDigits","eAnalMeth"],"nPurityMol":99.5,"eAnalMeth":["Stated by supplier"]}],"eSource":"Commercial source","nSampleNm":1}],"sStandardInChIKey":"MFEIKQPHQINPRI-UHFFFAOYSA-N","sStandardInChI":"InChI=1S/C7H9N/c1-2-7-4-3-5-8-6-7/h3-6H,2H2,1H3","RegNum":{"tml_elements":["nOrgNum"],"nOrgNum":2}},{"sFormulaMolec":"C7H9N","Sample":[{"eSource":"Commercial source","nSampleNm":1,"tml_elements":["nSampleNm","eSource","purity"],"purity":[{"tml_elements":["nStep","nPurityMol","nPurityMolDigits","eAnalMeth"],"nPurityMol":99.5,"nPurityMolDigits":3,"nStep":1,"eAnalMeth":["Stated by supplier"]}]}],"tml_elements":["RegNum","sStandardInChI","sStandardInChIKey","sCommonName","sFormulaMolec","Sample"],"sCommonName":[".gamma.-ethylpyridine","4-ethylpyridine","pyridine, 4-ethyl-"],"sStandardInChIKey":"VJXRKZJMGVSXPX-UHFFFAOYSA-N","sStandardInChI":"InChI=1S/C7H9N/c1-2-7-3-5-8-6-4-7/h3-6H,2H2,1H3","RegNum":{"nOrgNum":3,"tml_elements":["nOrgNum"]}},{"tml_elements":["RegNum","sStandardInChI","sStandardInChIKey","sCommonName","sFormulaMolec","Sample"],"Sample":[{"purity":[{"nPurityMol":97.6,"tml_elements":["nStep","nPurityMol","nPurityMolDigits","eAnalMeth"],"nStep":1,"nPurityMolDigits":3,"eAnalMeth":["Stated by supplier"]}],"tml_elements":["nSampleNm","eSource","purity"],"nSampleNm":1,"eSource":"Commercial source"}],"sCommonName":["3-ethyl-6-methylpyridine","5-ethyl-.alpha.-picoline","5-ethyl-2-methylpyridine","5-ethyl-2-picoline","aldehydecollidine","aldehydine","pyridine, 3-ethyl-6-methyl-","pyridine, 5-ethyl-2-methyl-"],"sFormulaMolec":"C8H11N","sStandardInChIKey":"NTSLROIKFLNUIJ-UHFFFAOYSA-N","RegNum":{"tml_elements":["nOrgNum"],"nOrgNum":4},"sStandardInChI":"InChI=1S/C8H11N/c1-3-8-5-4-7(2)9-6-8/h4-6H,3H2,1-2H3"}],"Citation":{"sPage":"14-17","eType":"journal","sVol":"446","sPubName":"Fluid Phase Equilib.","yrPubYr":"2017","dateCit":"2020-09-29","sAbstract":"The critical temperatures and pressures of 2-, 3-, 4-ethylpyridines, and 2-methyl-5-ethylpyridine have been measured. The critical properties of 3- and 4-ethylpyridines are very close while those of 2- ethylpyridine noticeably differ from them, which correlates with the normal boiling points of these compounds. The experimental critical constants of the pyridines investigated have also been compared with those calculated using the group (bond) contribution methods of Wilson and Jasperson, Marrero and Gani, Hukkerikar and co-workers, Marrero-Marejon and Pordillo-Fontdevila. The acentric factors of the pyridines have been calculated.","TRCRefID":{"yrYrPub":"2017","sAuthor1":"nik","sAuthor2":"pop","nAuthorn":"0","tml_elements":["yrYrPub","sAuthor1","sAuthor2","nAuthorn"]},"sTitle":"Critical point measurements of four pyridines","sDOI":"10.1016/j.fluid.2017.05.010","tml_elements":["TRCRefID","eType","eSourceType","sAuthor","sPubName","yrPubYr","dateCit","sTitle","sAbstract","sKeyword","sDOI","sVol","sPage"],"sKeyword":["Critical properties","Ethylpyridines","2-Methyl-5-ethylpyridine","Thermally unstable compounds","Pulse-heating method."],"sAuthor":["Nikitin, E. D.[Eugene D.]","Popov, A. P.[Alexander P.]"],"eSourceType":"Original"},"THERMOML_MD5_CHECKSUM":"cbed1b2536bbde7516d4071576a695da"}