{"Version":{"nVersionMinor":0,"nVersionMajor":2,"tml_elements":["nVersionMajor","nVersionMinor"]},"Citation":{"eType":"journal","sVol":"237","sPage":"16-20","yrPubYr":"2005","sPubName":"Fluid Phase Equilib.","sIDNum":"1-2","dateCit":"2020-09-29","sAuthor":["Nikitin, E. D.[Eugene D.]","Popov, A. P.[Alexander P.]"],"sKeyword":["Critical point","Measurement","Alkanes"],"tml_elements":["TRCRefID","eType","eSourceType","sAuthor","sPubName","yrPubYr","dateCit","sTitle","sAbstract","sKeyword","sDOI","sIDNum","sVol","sPage"],"sDOI":"10.1016/j.fluid.2005.06.026","sTitle":"Vapor liquid critical properties of squalane measured by the pulse-heating technique","TRCRefID":{"yrYrPub":"2005","sAuthor1":"nik","sAuthor2":"pop","nAuthorn":"0","tml_elements":["yrYrPub","sAuthor1","sAuthor2","nAuthorn"]},"sAbstract":"The critical temperature and pressure of squalane (2,6,10,15,19,23-hexamethyltetracosane) have been measured using the pulse-heating method. Residence times are from 0.03 to 1 ms. The experimental critical properties are compared with the results of measurement by a flow method, computer-simulation data, and the values calculated by the group-contribution methods. The critical temperature of squalane is about 2.5% lower and the critical pressure is 10% higher than those of its linear isomer-n-triacontane.","eSourceType":"Original"},"THERMOML_MD5_CHECKSUM":"4b5fef486da5bc683fcc1baa7e6838ed","Compound":[{"RegNum":{"tml_elements":["nOrgNum"],"nOrgNum":1},"sStandardInChI":"InChI=1S/C30H62/c1-25(2)15-11-19-29(7)23-13-21-27(5)17-9-10-18-28(6)22-14-24-30(8)20-12-16-26(3)4/h25-30H,9-24H2,1-8H3","sStandardInChIKey":"PRAKJMSDJKAYCZ-UHFFFAOYSA-N","sFormulaMolec":"C30H62","Sample":[{"eSource":"Commercial source","nSampleNm":1,"tml_elements":["nSampleNm","eSource","purity"],"purity":[{"nUnknownPerCentDigits":2,"nUnknownPerCent":99,"eAnalMeth":["Stated by supplier"],"nStep":1,"tml_elements":["nStep","nUnknownPerCent","nUnknownPerCentDigits","eAnalMeth"]},{"ePurifMethod":["None used"],"nStep":2,"tml_elements":["nStep","ePurifMethod"]},{"nStep":3,"tml_elements":["nStep","nUnknownPerCent","nUnknownPerCentDigits","eAnalMeth"],"eAnalMeth":["Gas chromatography"],"nUnknownPerCentDigits":3,"nUnknownPerCent":99.9}]}],"sCommonName":["2,6,10,15,19,23-hexamethyltetracosane","squalane"],"tml_elements":["RegNum","sStandardInChI","sStandardInChIKey","sCommonName","sFormulaMolec","Sample"]}],"tml_elements":["Version","Citation","Compound","PureOrMixtureData"],"PureOrMixtureData":[{"Property":[{"nPropNumber":1,"Property-MethodID":{"tml_elements":["PropertyGroup"],"PropertyGroup":{"tml_elements":["Criticals"],"Criticals":{"tml_elements":["ePropName","sMethodName"],"sMethodName":"pulse heating method","ePropName":"Critical pressure, kPa"}}},"PropPhaseID":{"tml_elements":["ePropPhase"],"ePropPhase":"Liquid"},"tml_elements":["nPropNumber","Property-MethodID","PropPhaseID","ePresentation","CombinedUncertainty"],"ePresentation":"Direct value, X","CombinedUncertainty":{"nCombUncertAssessNum":1,"sCombUncertEvaluator":"Data file compiler","tml_elements":["nCombUncertAssessNum","sCombUncertEvaluator","eCombUncertEvalMethod","nCombUncertLevOfConfid"],"eCombUncertEvalMethod":"Propagation of evaluated standard uncertainties","nCombUncertLevOfConfid":95}}],"eExpPurpose":"Principal objective of the work","nPureOrMixtureDataNumber":1,"dateDateAdded":"10/14/2005","sCompiler":"JCE","NumValues":[{"VariableValue":[],"tml_elements":["PropertyValue"],"PropertyValue":[{"tml_elements":["nPropNumber","nPropValue","nPropDigits","CombinedUncertainty"],"nPropDigits":1,"nPropNumber":1,"nPropValue":700,"CombinedUncertainty":{"nCombUncertAssessNum":1,"nCombExpandUncertValue":60,"tml_elements":["nCombUncertAssessNum","nCombExpandUncertValue"]}}]}],"tml_elements":["nPureOrMixtureDataNumber","Component","eExpPurpose","sCompiler","sContributor","dateDateAdded","Property","PhaseID","NumValues"],"PhaseID":[{"ePhase":"Liquid","tml_elements":["ePhase"]},{"tml_elements":["ePhase"],"ePhase":"Gas"}],"Component":[{"tml_elements":["RegNum","nSampleNm"],"RegNum":{"nOrgNum":1,"tml_elements":["nOrgNum"]},"nSampleNm":1}],"sContributor":"JCE"},{"NumValues":[{"PropertyValue":[{"nPropValue":822,"CombinedUncertainty":{"nCombExpandUncertValue":12,"tml_elements":["nCombUncertAssessNum","nCombExpandUncertValue"],"nCombUncertAssessNum":1},"tml_elements":["nPropNumber","nPropValue","nPropDigits","CombinedUncertainty"],"nPropDigits":3,"nPropNumber":1}],"tml_elements":["PropertyValue"],"VariableValue":[]}],"sCompiler":"JCE","nPureOrMixtureDataNumber":2,"dateDateAdded":"10/14/2005","eExpPurpose":"Principal objective of the work","Property":[{"nPropNumber":1,"PropPhaseID":{"tml_elements":["ePropPhase"],"ePropPhase":"Liquid"},"tml_elements":["nPropNumber","Property-MethodID","PropPhaseID","ePresentation","CombinedUncertainty"],"ePresentation":"Direct value, X","Property-MethodID":{"PropertyGroup":{"Criticals":{"ePropName":"Critical temperature, K","sMethodName":"pulse heating method","tml_elements":["ePropName","sMethodName"]},"tml_elements":["Criticals"]},"tml_elements":["PropertyGroup"]},"CombinedUncertainty":{"tml_elements":["nCombUncertAssessNum","sCombUncertEvaluator","eCombUncertEvalMethod","nCombUncertLevOfConfid"],"nCombUncertLevOfConfid":95,"eCombUncertEvalMethod":"Propagation of evaluated standard uncertainties","nCombUncertAssessNum":1,"sCombUncertEvaluator":"Data file compiler"}}],"sContributor":"JCE","Component":[{"tml_elements":["RegNum","nSampleNm"],"RegNum":{"nOrgNum":1,"tml_elements":["nOrgNum"]},"nSampleNm":1}],"PhaseID":[{"tml_elements":["ePhase"],"ePhase":"Liquid"},{"tml_elements":["ePhase"],"ePhase":"Gas"}],"tml_elements":["nPureOrMixtureDataNumber","Component","eExpPurpose","sCompiler","sContributor","dateDateAdded","Property","PhaseID","NumValues"]}]}