{"Citation":{"dateCit":"2020-09-29","sPubName":"Fluid Phase Equilib.","yrPubYr":"2016","sPage":"99-110","eType":"journal","sVol":"422","eSourceType":"Original","sDOI":"10.1016/j.fluid.2016.01.035","sTitle":"Thermodynamics of a model biological reaction: A comprehensive combined experimental and theoretical study","TRCRefID":{"sAuthor1":"eme","sAuthor2":"yer","tml_elements":["yrYrPub","sAuthor1","sAuthor2","nAuthorn"],"nAuthorn":"0","yrYrPub":"2016"},"sAbstract":"In this work we applied experimental and theoretical thermodynamics to methyl ferulate hydrolysis, a model biological reaction in order to calculate the equilibrium constant and reaction enthalpy. In the first step, reaction data was collected. Temperature-dependent equilibrium concentrations of methyl ferulate hydrolysis have been measured. These were combined with activity coefficients predicted with electrolyte PC-SAFT in order to derive thermodynamic equilibriums constants K_a as a function of temperature. In a second step, thermochemical properties of the highly pure reaction participants methyl ferulate and ferulic acid were measured by complementary thermochemical methods including combustion and differential scanning calorimetry. Vapor pressures and sublimation enthalpies of these compounds were measured by transpiration and TGA methods over a broad temperature range. Thermodynamic data on methyl ferulate and ferulic acid available in the literature were evaluated and combined with our own experimental results. Further, the standard molar enthalpy of methyl ferulate hydrolysis reaction calculated according to the Hess' Law applied to the reaction participants was found to be in agreement with the experimental reaction enthalpy from the equilibrium study. In a final step, the gas-phase equilibrium constant of methyl ferulate hydrolysis at 298.15 K was calculated with the G3MP2 method. This value was adjusted to the liquid phase using the experimental vapor pressures of the reaction participants. As a result, the liquid phase K_a value calculated by quantum chemistry with additional data on the pure reaction participants was in good agreement with the experimental K_a reported in the literature for the aqueous phase. The thermodynamic procedure based on the quantum-chemical calculations is found to be a valuable option for assessment of thermodynamic properties of biologically relevant chemical reactions","sAuthor":["Emel'yanenko, V. N.[Vladimir N.]","Yermalayeu, A. V.[Andrei V.]","Voges, M.[Matthias]","Held, C.[Christoph]","Sadowski, G.[Gabriele]","Verevkin, S. P.[Sergey P.]"],"sKeyword":["Equilibrium constant","ePC-SAFT","Thermochemistry","Enthalpy of","formation","Quantum-chemical calculations."],"tml_elements":["TRCRefID","eType","eSourceType","sAuthor","sPubName","yrPubYr","dateCit","sTitle","sAbstract","sKeyword","sDOI","sVol","sPage"]},"Version":{"tml_elements":["nVersionMajor","nVersionMinor"],"nVersionMajor":2,"nVersionMinor":0},"tml_elements":["Version","Citation","Compound","PureOrMixtureData","ReactionData"],"PureOrMixtureData":[{"Component":[{"tml_elements":["RegNum","nSampleNm"],"nSampleNm":1,"RegNum":{"tml_elements":["nOrgNum"],"nOrgNum":6}}],"PhaseID":[{"ePhase":"Crystal","tml_elements":["ePhase"]},{"ePhase":"Liquid","tml_elements":["ePhase"]},{"tml_elements":["ePhase"],"ePhase":"Air at 1 atmosphere"}],"tml_elements":["nPureOrMixtureDataNumber","Component","eExpPurpose","sCompiler","sContributor","dateDateAdded","Property","PhaseID","NumValues"],"sContributor":"XXX","eExpPurpose":"Principal objective of the work","Property":[{"PropPhaseID":{"ePropPhase":"Crystal","tml_elements":["ePropPhase"]},"Property-MethodID":{"PropertyGroup":{"tml_elements":["PhaseTransition"],"PhaseTransition":{"tml_elements":["ePropName","sMethodName"],"sMethodName":"DTA","ePropName":"Normal melting temperature, K"}},"tml_elements":["PropertyGroup"]},"nPropNumber":1,"ePresentation":"Direct value, X","tml_elements":["nPropNumber","Property-MethodID","PropPhaseID","ePresentation","CombinedUncertainty"],"CombinedUncertainty":{"eCombUncertEvalMethod":"Propagation of evaluated standard uncertainties","nCombUncertLevOfConfid":95,"tml_elements":["nCombUncertAssessNum","sCombUncertEvaluator","eCombUncertEvalMethod","nCombUncertLevOfConfid"],"sCombUncertEvaluator":"Data file compiler","nCombUncertAssessNum":1}}],"NumValues":[{"tml_elements":["PropertyValue"],"PropertyValue":[{"nPropDigits":4,"nPropNumber":1,"tml_elements":["nPropNumber","nPropValue","nPropDigits","CombinedUncertainty"],"nPropValue":445.9,"CombinedUncertainty":{"tml_elements":["nCombUncertAssessNum","nCombExpandUncertValue"],"nCombExpandUncertValue":0.5,"nCombUncertAssessNum":1}}],"VariableValue":[]}],"sCompiler":"BLS","dateDateAdded":"1/14/2016","nPureOrMixtureDataNumber":1},{"NumValues":[{"PropertyValue":[{"CombinedUncertainty":{"nCombUncertAssessNum":1,"nCombExpandUncertValue":0.8,"tml_elements":["nCombUncertAssessNum","nCombExpandUncertValue"]},"nPropValue":34.7,"tml_elements":["nPropNumber","nPropValue","nPropDigits","CombinedUncertainty"],"nPropDigits":3,"nPropNumber":1}],"tml_elements":["PropertyValue"],"VariableValue":[]}],"sCompiler":"JWM","nPureOrMixtureDataNumber":2,"dateDateAdded":"10/29/2016","Property":[{"ePresentation":"Direct value, X","tml_elements":["nPropNumber","Property-MethodID","PropPhaseID","ePresentation","CombinedUncertainty"],"Property-MethodID":{"tml_elements":["PropertyGroup"],"PropertyGroup":{"PhaseTransition":{"tml_elements":["ePropName","sMethodName"],"ePropName":"Molar enthalpy of transition or fusion, kJ/mol","sMethodName":"DSC"},"tml_elements":["PhaseTransition"]}},"PropPhaseID":{"ePropPhase":"Crystal","tml_elements":["ePropPhase"]},"nPropNumber":1,"CombinedUncertainty":{"nCombUncertAssessNum":1,"sCombUncertEvaluator":"Data file compiler","tml_elements":["nCombUncertAssessNum","sCombUncertEvaluator","eCombUncertEvalMethod","nCombUncertLevOfConfid"],"eCombUncertEvalMethod":"Propagation of evaluated standard uncertainties","nCombUncertLevOfConfid":95}}],"eExpPurpose":"Principal objective of the work","sContributor":"JWM","Component":[{"RegNum":{"nOrgNum":6,"tml_elements":["nOrgNum"]},"nSampleNm":1,"tml_elements":["RegNum","nSampleNm"]}],"PhaseID":[{"ePhase":"Crystal","tml_elements":["ePhase"]},{"tml_elements":["ePhase"],"ePhase":"Liquid"},{"ePhase":"Air at 1 atmosphere","tml_elements":["ePhase"]}],"tml_elements":["nPureOrMixtureDataNumber","Component","eExpPurpose","sCompiler","sContributor","dateDateAdded","Property","PhaseID","NumValues"]},{"PhaseID":[{"tml_elements":["ePhase"],"ePhase":"Crystal"},{"tml_elements":["ePhase"],"ePhase":"Gas"}],"tml_elements":["nPureOrMixtureDataNumber","Component","eExpPurpose","sCompiler","sContributor","dateDateAdded","Property","PhaseID","Variable","NumValues"],"Component":[{"RegNum":{"tml_elements":["nOrgNum"],"nOrgNum":6},"nSampleNm":1,"tml_elements":["RegNum","nSampleNm"]}],"Variable":[{"tml_elements":["nVarNumber","VariableID","VarPhaseID"],"VarPhaseID":{"eVarPhase":"Crystal","tml_elements":["eVarPhase"]},"nVarNumber":1,"VariableID":{"VariableType":{"tml_elements":["eTemperature"],"eTemperature":"Temperature, K"},"tml_elements":["VariableType"]}}],"sContributor":"JWM","eExpPurpose":"Principal objective of the work","Property":[{"CombinedUncertainty":{"nCombUncertAssessNum":1,"sCombUncertEvaluator":"Data file compiler","tml_elements":["nCombUncertAssessNum","sCombUncertEvaluator","eCombUncertEvalMethod","nCombUncertLevOfConfid"],"eCombUncertEvalMethod":"Propagation of evaluated standard uncertainties","nCombUncertLevOfConfid":95},"tml_elements":["nPropNumber","Property-MethodID","PropPhaseID","ePresentation","CombinedUncertainty"],"ePresentation":"Direct value, X","nPropNumber":1,"PropPhaseID":{"ePropPhase":"Crystal","tml_elements":["ePropPhase"]},"Property-MethodID":{"tml_elements":["PropertyGroup"],"PropertyGroup":{"PhaseTransition":{"tml_elements":["ePropName","sMethodName"],"ePropName":"Molar enthalpy of vaporization or sublimation, kJ/mol","sMethodName":"TGA"},"tml_elements":["PhaseTransition"]}}}],"sCompiler":"JWM","nPureOrMixtureDataNumber":3,"dateDateAdded":"10/29/2016","NumValues":[{"tml_elements":["VariableValue","PropertyValue"],"PropertyValue":[{"nPropValue":135.7,"CombinedUncertainty":{"nCombExpandUncertValue":2,"tml_elements":["nCombUncertAssessNum","nCombExpandUncertValue"],"nCombUncertAssessNum":1},"tml_elements":["nPropNumber","nPropValue","nPropDigits","CombinedUncertainty"],"nPropDigits":4,"nPropNumber":1}],"VariableValue":[{"nVarValue":298.15,"nVarNumber":1,"tml_elements":["nVarNumber","nVarValue","nVarDigits"],"nVarDigits":5}]}]},{"NumValues":[{"tml_elements":["PropertyValue"],"PropertyValue":[{"nPropNumber":1,"nPropDigits":3,"tml_elements":["nPropNumber","nPropValue","nPropDigits","CombinedUncertainty"],"nPropValue":23.5,"CombinedUncertainty":{"nCombUncertAssessNum":1,"nCombExpandUncertValue":2.3,"tml_elements":["nCombUncertAssessNum","nCombExpandUncertValue"]}}],"VariableValue":[]}],"sCompiler":"JWM","nPureOrMixtureDataNumber":4,"dateDateAdded":"10/29/2016","Property":[{"ePresentation":"Direct value, X","tml_elements":["nPropNumber","Property-MethodID","PropPhaseID","ePresentation","CombinedUncertainty"],"PropPhaseID":{"tml_elements":["ePropPhase"],"ePropPhase":"Crystal"},"Property-MethodID":{"PropertyGroup":{"PhaseTransition":{"tml_elements":["ePropName","sMethodName"],"ePropName":"Molar enthalpy of transition or fusion, kJ/mol","sMethodName":"DSC"},"tml_elements":["PhaseTransition"]},"tml_elements":["PropertyGroup"]},"nPropNumber":1,"CombinedUncertainty":{"nCombUncertAssessNum":1,"sCombUncertEvaluator":"Data file compiler","tml_elements":["nCombUncertAssessNum","sCombUncertEvaluator","eCombUncertEvalMethod","nCombUncertLevOfConfid"],"nCombUncertLevOfConfid":95,"eCombUncertEvalMethod":"Propagation of evaluated standard uncertainties"}}],"eExpPurpose":"Principal objective of the work","sContributor":"JWM","Component":[{"nSampleNm":1,"RegNum":{"nOrgNum":7,"tml_elements":["nOrgNum"]},"tml_elements":["RegNum","nSampleNm"]}],"PhaseID":[{"tml_elements":["ePhase"],"ePhase":"Crystal"},{"tml_elements":["ePhase"],"ePhase":"Liquid"},{"ePhase":"Air at 1 atmosphere","tml_elements":["ePhase"]}],"tml_elements":["nPureOrMixtureDataNumber","Component","eExpPurpose","sCompiler","sContributor","dateDateAdded","Property","PhaseID","NumValues"]},{"sCompiler":"JWM","nPureOrMixtureDataNumber":5,"dateDateAdded":"10/29/2016","NumValues":[{"tml_elements":["VariableValue","PropertyValue"],"PropertyValue":[{"tml_elements":["nPropNumber","nPropValue","nPropDigits","CombinedUncertainty"],"nPropDigits":4,"nPropNumber":1,"nPropValue":123.3,"CombinedUncertainty":{"nCombUncertAssessNum":1,"nCombExpandUncertValue":2.9,"tml_elements":["nCombUncertAssessNum","nCombExpandUncertValue"]}}],"VariableValue":[{"nVarValue":298.15,"nVarDigits":5,"tml_elements":["nVarNumber","nVarValue","nVarDigits"],"nVarNumber":1}]}],"Property":[{"ePresentation":"Direct value, X","tml_elements":["nPropNumber","Property-MethodID","PropPhaseID","ePresentation","CombinedUncertainty"],"PropPhaseID":{"ePropPhase":"Crystal","tml_elements":["ePropPhase"]},"nPropNumber":1,"CombinedUncertainty":{"sCombUncertEvaluator":"Data file compiler","nCombUncertAssessNum":1,"eCombUncertEvalMethod":"Propagation of evaluated standard uncertainties","nCombUncertLevOfConfid":95,"tml_elements":["nCombUncertAssessNum","sCombUncertEvaluator","eCombUncertEvalMethod","nCombUncertLevOfConfid"]},"Property-MethodID":{"PropertyGroup":{"tml_elements":["PhaseTransition"],"PhaseTransition":{"ePropName":"Molar enthalpy of vaporization or sublimation, kJ/mol","eMethodName":"Derived by Second law","tml_elements":["ePropName","eMethodName"]}},"tml_elements":["PropertyGroup"]}}],"eExpPurpose":"Principal objective of the work","Variable":[{"tml_elements":["nVarNumber","VariableID","VarPhaseID"],"VarPhaseID":{"tml_elements":["eVarPhase"],"eVarPhase":"Crystal"},"nVarNumber":1,"VariableID":{"VariableType":{"tml_elements":["eTemperature"],"eTemperature":"Temperature, K"},"tml_elements":["VariableType"]}}],"sContributor":"JWM","PhaseID":[{"tml_elements":["ePhase"],"ePhase":"Crystal"},{"tml_elements":["ePhase"],"ePhase":"Gas"}],"tml_elements":["nPureOrMixtureDataNumber","Component","eExpPurpose","sCompiler","sContributor","dateDateAdded","Property","PhaseID","Variable","NumValues"],"Component":[{"RegNum":{"tml_elements":["nOrgNum"],"nOrgNum":7},"nSampleNm":1,"tml_elements":["RegNum","nSampleNm"]}]},{"PhaseID":[{"tml_elements":["ePhase"],"ePhase":"Liquid"},{"tml_elements":["ePhase"],"ePhase":"Gas"}],"tml_elements":["nPureOrMixtureDataNumber","Component","eExpPurpose","sCompiler","sContributor","dateDateAdded","Property","PhaseID","Variable","NumValues"],"sContributor":"XXX","eExpPurpose":"Principal objective of the work","Property":[{"tml_elements":["nPropNumber","Property-MethodID","PropPhaseID","ePresentation","CombinedUncertainty"],"ePresentation":"Direct value, X","nPropNumber":1,"PropPhaseID":{"ePropPhase":"Liquid","tml_elements":["ePropPhase"]},"Property-MethodID":{"PropertyGroup":{"tml_elements":["VaporPBoilingTAzeotropTandP"],"VaporPBoilingTAzeotropTandP":{"tml_elements":["ePropName","eMethodName"],"ePropName":"Vapor or sublimation pressure, kPa","eMethodName":"Transpiration method"}},"tml_elements":["PropertyGroup"]},"CombinedUncertainty":{"nCombUncertLevOfConfid":95,"eCombUncertEvalMethod":"Propagation of evaluated standard uncertainties","tml_elements":["nCombUncertAssessNum","sCombUncertEvaluator","eCombUncertEvalMethod","nCombUncertLevOfConfid"],"sCombUncertEvaluator":"Data file compiler","nCombUncertAssessNum":1}}],"sCompiler":"BLS","dateDateAdded":"1/14/2016","nPureOrMixtureDataNumber":6,"NumValues":[{"VariableValue":[{"nVarNumber":1,"tml_elements":["nVarNumber","nVarValue","nVarDigits"],"nVarDigits":4,"nVarValue":340.2}],"tml_elements":["VariableValue","PropertyValue"],"PropertyValue":[{"nPropDigits":2,"nPropNumber":1,"tml_elements":["nPropNumber","nPropValue","nPropDigits","CombinedUncertainty"],"CombinedUncertainty":{"tml_elements":["nCombUncertAssessNum","nCombExpandUncertValue"],"nCombExpandUncertValue":4e-06,"nCombUncertAssessNum":1},"nPropValue":9.7e-05}]},{"VariableValue":[{"nVarNumber":1,"nVarDigits":4,"tml_elements":["nVarNumber","nVarValue","nVarDigits"],"nVarValue":343.2}],"tml_elements":["VariableValue","PropertyValue"],"PropertyValue":[{"CombinedUncertainty":{"nCombExpandUncertValue":6e-06,"tml_elements":["nCombUncertAssessNum","nCombExpandUncertValue"],"nCombUncertAssessNum":1},"nPropValue":0.000128,"nPropDigits":3,"nPropNumber":1,"tml_elements":["nPropNumber","nPropValue","nPropDigits","CombinedUncertainty"]}]},{"tml_elements":["VariableValue","PropertyValue"],"PropertyValue":[{"nPropValue":0.00021,"CombinedUncertainty":{"tml_elements":["nCombUncertAssessNum","nCombExpandUncertValue"],"nCombExpandUncertValue":9e-06,"nCombUncertAssessNum":1},"nPropDigits":3,"nPropNumber":1,"tml_elements":["nPropNumber","nPropValue","nPropDigits","CombinedUncertainty"]}],"VariableValue":[{"nVarNumber":1,"nVarDigits":4,"tml_elements":["nVarNumber","nVarValue","nVarDigits"],"nVarValue":348.2}]},{"VariableValue":[{"nVarDigits":4,"tml_elements":["nVarNumber","nVarValue","nVarDigits"],"nVarNumber":1,"nVarValue":353.1}],"PropertyValue":[{"CombinedUncertainty":{"nCombUncertAssessNum":1,"nCombExpandUncertValue":1.4e-05,"tml_elements":["nCombUncertAssessNum","nCombExpandUncertValue"]},"nPropValue":0.000324,"nPropDigits":3,"nPropNumber":1,"tml_elements":["nPropNumber","nPropValue","nPropDigits","CombinedUncertainty"]}],"tml_elements":["VariableValue","PropertyValue"]},{"VariableValue":[{"nVarValue":358.2,"nVarDigits":4,"tml_elements":["nVarNumber","nVarValue","nVarDigits"],"nVarNumber":1}],"tml_elements":["VariableValue","PropertyValue"],"PropertyValue":[{"CombinedUncertainty":{"nCombExpandUncertValue":2.2e-05,"tml_elements":["nCombUncertAssessNum","nCombExpandUncertValue"],"nCombUncertAssessNum":1},"nPropValue":0.000513,"tml_elements":["nPropNumber","nPropValue","nPropDigits","CombinedUncertainty"],"nPropDigits":3,"nPropNumber":1}]},{"VariableValue":[{"nVarDigits":4,"tml_elements":["nVarNumber","nVarValue","nVarDigits"],"nVarNumber":1,"nVarValue":363.2}],"PropertyValue":[{"CombinedUncertainty":{"nCombUncertAssessNum":1,"tml_elements":["nCombUncertAssessNum","nCombExpandUncertValue"],"nCombExpandUncertValue":3.3e-05},"nPropValue":0.000769,"nPropNumber":1,"nPropDigits":3,"tml_elements":["nPropNumber","nPropValue","nPropDigits","CombinedUncertainty"]}],"tml_elements":["VariableValue","PropertyValue"]},{"PropertyValue":[{"nPropDigits":3,"nPropNumber":1,"tml_elements":["nPropNumber","nPropValue","nPropDigits","CombinedUncertainty"],"CombinedUncertainty":{"nCombUncertAssessNum":1,"nCombExpandUncertValue":5e-05,"tml_elements":["nCombUncertAssessNum","nCombExpandUncertValue"]},"nPropValue":0.00117}],"tml_elements":["VariableValue","PropertyValue"],"VariableValue":[{"nVarValue":368.1,"nVarDigits":4,"tml_elements":["nVarNumber","nVarValue","nVarDigits"],"nVarNumber":1}]},{"PropertyValue":[{"CombinedUncertainty":{"nCombExpandUncertValue":6e-05,"tml_elements":["nCombUncertAssessNum","nCombExpandUncertValue"],"nCombUncertAssessNum":1},"nPropValue":0.0014,"tml_elements":["nPropNumber","nPropValue","nPropDigits","CombinedUncertainty"],"nPropDigits":3,"nPropNumber":1}],"tml_elements":["VariableValue","PropertyValue"],"VariableValue":[{"nVarNumber":1,"tml_elements":["nVarNumber","nVarValue","nVarDigits"],"nVarDigits":4,"nVarValue":370.2}]},{"VariableValue":[{"nVarValue":373.2,"tml_elements":["nVarNumber","nVarValue","nVarDigits"],"nVarDigits":4,"nVarNumber":1}],"tml_elements":["VariableValue","PropertyValue"],"PropertyValue":[{"CombinedUncertainty":{"nCombUncertAssessNum":1,"nCombExpandUncertValue":8e-05,"tml_elements":["nCombUncertAssessNum","nCombExpandUncertValue"]},"nPropValue":0.00179,"tml_elements":["nPropNumber","nPropValue","nPropDigits","CombinedUncertainty"],"nPropNumber":1,"nPropDigits":3}]},{"VariableValue":[{"nVarValue":376.2,"nVarNumber":1,"nVarDigits":4,"tml_elements":["nVarNumber","nVarValue","nVarDigits"]}],"tml_elements":["VariableValue","PropertyValue"],"PropertyValue":[{"tml_elements":["nPropNumber","nPropValue","nPropDigits","CombinedUncertainty"],"nPropDigits":3,"nPropNumber":1,"CombinedUncertainty":{"nCombUncertAssessNum":1,"nCombExpandUncertValue":0.0001,"tml_elements":["nCombUncertAssessNum","nCombExpandUncertValue"]},"nPropValue":0.00229}]}],"Component":[{"RegNum":{"nOrgNum":7,"tml_elements":["nOrgNum"]},"nSampleNm":1,"tml_elements":["RegNum","nSampleNm"]}],"Variable":[{"VarPhaseID":{"tml_elements":["eVarPhase"],"eVarPhase":"Liquid"},"nVarNumber":1,"tml_elements":["nVarNumber","VariableID","VarPhaseID"],"VariableID":{"VariableType":{"eTemperature":"Temperature, K","tml_elements":["eTemperature"]},"tml_elements":["VariableType"]}}]}],"ReactionData":[{"tml_elements":["nReactionDataNumber","Participant","eExpPurpose","sCompiler","sContributor","dateDateAdded","eReactionType","Property","NumValues"],"Participant":[{"tml_elements":["RegNum","nSampleNm","nStoichiometricCoef","ePhase"],"ePhase":"Crystal","RegNum":{"nOrgNum":7,"tml_elements":["nOrgNum"]},"nStoichiometricCoef":"-1","nSampleNm":1},{"tml_elements":["RegNum","nStoichiometricCoef","ePhase"],"ePhase":"Gas","RegNum":{"nOrgNum":1,"tml_elements":["nOrgNum"]},"nStoichiometricCoef":"11"},{"tml_elements":["RegNum","nStoichiometricCoef","ePhase"],"ePhase":"Liquid","RegNum":{"nOrgNum":2,"tml_elements":["nOrgNum"]},"nStoichiometricCoef":"6"},{"nStoichiometricCoef":"-12","RegNum":{"tml_elements":["nOrgNum"],"nOrgNum":3},"ePhase":"Gas","tml_elements":["RegNum","nStoichiometricCoef","ePhase"]}],"eReactionType":"Combustion with oxygen","sContributor":"JWM","nReactionDataNumber":1,"Property":[{"nPressureDigits":1,"nPressure-kPa":"100","nTemperature-K":"298.15","CombinedUncertainty":{"tml_elements":["nCombUncertAssessNum","sCombUncertEvaluator","eCombUncertEvalMethod","nCombUncertLevOfConfid"],"nCombUncertLevOfConfid":95,"eCombUncertEvalMethod":"Propagation of evaluated standard uncertainties","nCombUncertAssessNum":1,"sCombUncertEvaluator":"Data file compiler"},"nTemperatureDigits":5,"Property-MethodID":{"PropertyGroup":{"tml_elements":["ReactionStateChangeProp"],"ReactionStateChangeProp":{"tml_elements":["ePropName","eMethodName"],"ePropName":"Molar enthalpy of reaction, kJ/mol","eMethodName":"Static bomb calorimetry"}},"tml_elements":["PropertyGroup"]},"tml_elements":["nPropNumber","Property-MethodID","nTemperature-K","nTemperatureDigits","nPressure-kPa","nPressureDigits","CombinedUncertainty"],"nPropNumber":1}],"eExpPurpose":"Principal objective of the work","NumValues":[{"PropertyValue":[{"nPropValue":-5366.3,"CombinedUncertainty":{"nCombUncertAssessNum":1,"tml_elements":["nCombUncertAssessNum","nCombExpandUncertValue"],"nCombExpandUncertValue":2.9},"tml_elements":["nPropNumber","nPropValue","nPropDigits","CombinedUncertainty"],"nPropDigits":5,"nPropNumber":1}],"tml_elements":["PropertyValue"],"VariableValue":[]}],"dateDateAdded":"1/15/2016","sCompiler":"JWM"},{"sContributor":"JWM","nReactionDataNumber":2,"eReactionType":"Combustion with oxygen","tml_elements":["nReactionDataNumber","Participant","eExpPurpose","sCompiler","sContributor","dateDateAdded","eReactionType","Property","NumValues"],"Participant":[{"nSampleNm":1,"nStoichiometricCoef":"-1","RegNum":{"tml_elements":["nOrgNum"],"nOrgNum":7},"ePhase":"Crystal","tml_elements":["RegNum","nSampleNm","nStoichiometricCoef","ePhase"]},{"nStoichiometricCoef":"11","RegNum":{"tml_elements":["nOrgNum"],"nOrgNum":1},"ePhase":"Gas","tml_elements":["RegNum","nStoichiometricCoef","ePhase"]},{"ePhase":"Liquid","tml_elements":["RegNum","nStoichiometricCoef","ePhase"],"nStoichiometricCoef":"6","RegNum":{"tml_elements":["nOrgNum"],"nOrgNum":2}},{"RegNum":{"tml_elements":["nOrgNum"],"nOrgNum":3},"nStoichiometricCoef":"-12","tml_elements":["RegNum","nStoichiometricCoef","ePhase"],"ePhase":"Gas"}],"NumValues":[{"tml_elements":["PropertyValue"],"PropertyValue":[{"nPropValue":-25761.6,"CombinedUncertainty":{"nCombUncertAssessNum":1,"nCombExpandUncertValue":12.6,"tml_elements":["nCombUncertAssessNum","nCombExpandUncertValue"]},"tml_elements":["nPropNumber","nPropValue","nPropDigits","CombinedUncertainty"],"nPropDigits":6,"nPropNumber":1}],"VariableValue":[]}],"sCompiler":"JWM","dateDateAdded":"1/15/2016","eExpPurpose":"Principal objective of the work","Property":[{"nPressure-kPa":"100","nPressureDigits":1,"nTemperature-K":"298.15","CombinedUncertainty":{"nCombUncertLevOfConfid":95,"eCombUncertEvalMethod":"Propagation of evaluated standard uncertainties","tml_elements":["nCombUncertAssessNum","sCombUncertEvaluator","eCombUncertEvalMethod","nCombUncertLevOfConfid"],"sCombUncertEvaluator":"Data file compiler","nCombUncertAssessNum":1},"nTemperatureDigits":5,"tml_elements":["nPropNumber","Property-MethodID","nTemperature-K","nTemperatureDigits","nPressure-kPa","nPressureDigits","CombinedUncertainty"],"Property-MethodID":{"PropertyGroup":{"ReactionStateChangeProp":{"tml_elements":["ePropName","eMethodName"],"ePropName":"Specific internal energy of reaction at constant volume, J/g","eMethodName":"Static bomb calorimetry"},"tml_elements":["ReactionStateChangeProp"]},"tml_elements":["PropertyGroup"]},"nPropNumber":1}]},{"dateDateAdded":"1/14/2016","sCompiler":"BLS","NumValues":[{"tml_elements":["PropertyValue"],"PropertyValue":[{"nPropValue":-4656.1,"CombinedUncertainty":{"nCombExpandUncertValue":4.4,"tml_elements":["nCombUncertAssessNum","nCombExpandUncertValue"],"nCombUncertAssessNum":1},"nPropDigits":5,"nPropNumber":1,"tml_elements":["nPropNumber","nPropValue","nPropDigits","CombinedUncertainty"]}],"VariableValue":[]}],"eExpPurpose":"Principal objective of the work","Property":[{"Property-MethodID":{"PropertyGroup":{"tml_elements":["ReactionStateChangeProp"],"ReactionStateChangeProp":{"ePropName":"Molar enthalpy of reaction, kJ/mol","eMethodName":"Static bomb calorimetry","tml_elements":["ePropName","eMethodName"]}},"tml_elements":["PropertyGroup"]},"nTemperatureDigits":5,"CombinedUncertainty":{"sCombUncertEvaluator":"Data file compiler","nCombUncertAssessNum":1,"eCombUncertEvalMethod":"Propagation of evaluated standard uncertainties","nCombUncertLevOfConfid":95,"tml_elements":["nCombUncertAssessNum","sCombUncertEvaluator","eCombUncertEvalMethod","nCombUncertLevOfConfid"]},"nTemperature-K":"298.15","nPressureDigits":1,"nPressure-kPa":"100","nPropNumber":1,"tml_elements":["nPropNumber","Property-MethodID","nTemperature-K","nTemperatureDigits","nPressure-kPa","nPressureDigits","CombinedUncertainty"]}],"nReactionDataNumber":3,"sContributor":"XXX","tml_elements":["nReactionDataNumber","Participant","eExpPurpose","sCompiler","sContributor","dateDateAdded","eReactionType","Property","NumValues"],"Participant":[{"ePhase":"Crystal","tml_elements":["RegNum","nSampleNm","nStoichiometricCoef","ePhase"],"nSampleNm":1,"nStoichiometricCoef":"-1","RegNum":{"nOrgNum":6,"tml_elements":["nOrgNum"]}},{"nStoichiometricCoef":"10","RegNum":{"tml_elements":["nOrgNum"],"nOrgNum":1},"tml_elements":["RegNum","nStoichiometricCoef","ePhase"],"ePhase":"Gas"},{"nStoichiometricCoef":"5","RegNum":{"tml_elements":["nOrgNum"],"nOrgNum":2},"ePhase":"Liquid","tml_elements":["RegNum","nStoichiometricCoef","ePhase"]},{"tml_elements":["RegNum","nStoichiometricCoef","ePhase"],"ePhase":"Gas","RegNum":{"tml_elements":["nOrgNum"],"nOrgNum":3},"nStoichiometricCoef":"-10.5"}],"eReactionType":"Combustion with oxygen"},{"eReactionType":"Combustion with oxygen","tml_elements":["nReactionDataNumber","Participant","eExpPurpose","sCompiler","sContributor","dateDateAdded","eReactionType","Property","NumValues"],"Participant":[{"tml_elements":["RegNum","nSampleNm","nStoichiometricCoef","ePhase"],"ePhase":"Crystal","nStoichiometricCoef":"-1","nSampleNm":1,"RegNum":{"tml_elements":["nOrgNum"],"nOrgNum":6}},{"nStoichiometricCoef":"10","RegNum":{"nOrgNum":1,"tml_elements":["nOrgNum"]},"ePhase":"Gas","tml_elements":["RegNum","nStoichiometricCoef","ePhase"]},{"tml_elements":["RegNum","nStoichiometricCoef","ePhase"],"ePhase":"Liquid","RegNum":{"nOrgNum":2,"tml_elements":["nOrgNum"]},"nStoichiometricCoef":"5"},{"ePhase":"Gas","tml_elements":["RegNum","nStoichiometricCoef","ePhase"],"nStoichiometricCoef":"-10.5","RegNum":{"tml_elements":["nOrgNum"],"nOrgNum":3}}],"sContributor":"XXX","nReactionDataNumber":4,"Property":[{"nPropNumber":1,"tml_elements":["nPropNumber","Property-MethodID","nTemperature-K","nTemperatureDigits","nPressure-kPa","nPressureDigits","CombinedUncertainty"],"Property-MethodID":{"tml_elements":["PropertyGroup"],"PropertyGroup":{"tml_elements":["ReactionStateChangeProp"],"ReactionStateChangeProp":{"ePropName":"Specific internal energy of reaction at constant volume, J/g","eMethodName":"Static bomb calorimetry","tml_elements":["ePropName","eMethodName"]}}},"nTemperatureDigits":5,"nTemperature-K":"298.15","CombinedUncertainty":{"nCombUncertAssessNum":1,"sCombUncertEvaluator":"Data file compiler","tml_elements":["nCombUncertAssessNum","sCombUncertEvaluator","eCombUncertEvalMethod","nCombUncertLevOfConfid"],"eCombUncertEvalMethod":"Propagation of evaluated standard uncertainties","nCombUncertLevOfConfid":95},"nPressure-kPa":"100","nPressureDigits":1}],"eExpPurpose":"Principal objective of the work","NumValues":[{"VariableValue":[],"tml_elements":["PropertyValue"],"PropertyValue":[{"nPropValue":-23971.3,"CombinedUncertainty":{"nCombUncertAssessNum":1,"nCombExpandUncertValue":5.4,"tml_elements":["nCombUncertAssessNum","nCombExpandUncertValue"]},"tml_elements":["nPropNumber","nPropValue","nPropDigits","CombinedUncertainty"],"nPropNumber":1,"nPropDigits":6}]}],"sCompiler":"BLS","dateDateAdded":"1/14/2016"},{"sContributor":"XXX","nReactionDataNumber":5,"Participant":[{"RegNum":{"tml_elements":["nOrgNum"],"nOrgNum":7},"nStoichiometricCoef":"1","nSampleNm":1,"tml_elements":["RegNum","nSampleNm","nStoichiometricCoef","ePhase"],"ePhase":"Crystal"},{"nStoichiometricCoef":"-6","RegNum":{"tml_elements":["nOrgNum"],"nOrgNum":4},"tml_elements":["RegNum","nStoichiometricCoef","ePhase"],"ePhase":"Gas"},{"RegNum":{"tml_elements":["nOrgNum"],"nOrgNum":5},"nStoichiometricCoef":"-11","ePhase":"Crystal","tml_elements":["RegNum","nStoichiometricCoef","ePhase"]},{"RegNum":{"tml_elements":["nOrgNum"],"nOrgNum":3},"nStoichiometricCoef":"-2","ePhase":"Gas","tml_elements":["RegNum","nStoichiometricCoef","ePhase"]}],"tml_elements":["nReactionDataNumber","Participant","eExpPurpose","sCompiler","sContributor","dateDateAdded","eReactionType","Property","NumValues"],"eReactionType":"Formation of a compound from elements in their stable state","NumValues":[{"PropertyValue":[{"nPropValue":-677.3,"CombinedUncertainty":{"nCombUncertAssessNum":1,"tml_elements":["nCombUncertAssessNum","nCombExpandUncertValue"],"nCombExpandUncertValue":6.4},"tml_elements":["nPropNumber","nPropValue","nPropDigits","CombinedUncertainty"],"nPropDigits":4,"nPropNumber":1}],"tml_elements":["PropertyValue"],"VariableValue":[]}],"dateDateAdded":"1/14/2016","sCompiler":"BLS","eExpPurpose":"Principal objective of the work","Property":[{"nTemperatureDigits":5,"tml_elements":["nPropNumber","Property-MethodID","nTemperature-K","nTemperatureDigits","nPressure-kPa","nPressureDigits","CombinedUncertainty"],"Property-MethodID":{"PropertyGroup":{"tml_elements":["ReactionStateChangeProp"],"ReactionStateChangeProp":{"eMethodName":"Static bomb calorimetry","ePropName":"Molar enthalpy of reaction, kJ/mol","tml_elements":["ePropName","eMethodName"]}},"tml_elements":["PropertyGroup"]},"nPropNumber":1,"nPressure-kPa":"100","nPressureDigits":1,"CombinedUncertainty":{"sCombUncertEvaluator":"Data file compiler","nCombUncertAssessNum":1,"eCombUncertEvalMethod":"Propagation of evaluated standard uncertainties","nCombUncertLevOfConfid":95,"tml_elements":["nCombUncertAssessNum","sCombUncertEvaluator","eCombUncertEvalMethod","nCombUncertLevOfConfid"]},"nTemperature-K":"298.15"}]},{"sContributor":"XXX","nReactionDataNumber":6,"tml_elements":["nReactionDataNumber","Participant","eExpPurpose","sCompiler","sContributor","dateDateAdded","eReactionType","Property","NumValues"],"Participant":[{"nSampleNm":1,"nStoichiometricCoef":"1","RegNum":{"tml_elements":["nOrgNum"],"nOrgNum":7},"ePhase":"Gas","tml_elements":["RegNum","nSampleNm","nStoichiometricCoef","ePhase"]},{"nStoichiometricCoef":"-6","RegNum":{"tml_elements":["nOrgNum"],"nOrgNum":4},"ePhase":"Gas","tml_elements":["RegNum","nStoichiometricCoef","ePhase"]},{"nStoichiometricCoef":"-11","RegNum":{"nOrgNum":5,"tml_elements":["nOrgNum"]},"tml_elements":["RegNum","nStoichiometricCoef","ePhase"],"ePhase":"Crystal"},{"ePhase":"Gas","tml_elements":["RegNum","nStoichiometricCoef","ePhase"],"RegNum":{"tml_elements":["nOrgNum"],"nOrgNum":3},"nStoichiometricCoef":"-2"}],"eReactionType":"Formation of a compound from elements in their stable state","NumValues":[{"VariableValue":[],"PropertyValue":[{"tml_elements":["nPropNumber","nPropValue","nPropDigits","CombinedUncertainty"],"nPropDigits":4,"nPropNumber":1,"nPropValue":-554,"CombinedUncertainty":{"nCombExpandUncertValue":6.8,"tml_elements":["nCombUncertAssessNum","nCombExpandUncertValue"],"nCombUncertAssessNum":1}}],"tml_elements":["PropertyValue"]}],"dateDateAdded":"1/14/2016","sCompiler":"BLS","Property":[{"nPropNumber":1,"Property-MethodID":{"tml_elements":["PropertyGroup"],"PropertyGroup":{"ReactionStateChangeProp":{"ePropName":"Molar enthalpy of reaction, kJ/mol","eMethodName":"Static bomb calorimetry","tml_elements":["ePropName","eMethodName"]},"tml_elements":["ReactionStateChangeProp"]}},"tml_elements":["nPropNumber","Property-MethodID","nTemperature-K","nTemperatureDigits","nPressure-kPa","nPressureDigits","CombinedUncertainty"],"nTemperatureDigits":5,"nTemperature-K":"298.15","CombinedUncertainty":{"nCombUncertAssessNum":1,"sCombUncertEvaluator":"Data file compiler","tml_elements":["nCombUncertAssessNum","sCombUncertEvaluator","eCombUncertEvalMethod","nCombUncertLevOfConfid"],"nCombUncertLevOfConfid":95,"eCombUncertEvalMethod":"Propagation of evaluated standard uncertainties"},"nPressureDigits":1,"nPressure-kPa":"100"}],"eExpPurpose":"Principal objective of the work"},{"sContributor":"XXX","nReactionDataNumber":7,"tml_elements":["nReactionDataNumber","Participant","eExpPurpose","sCompiler","sContributor","dateDateAdded","eReactionType","Property","NumValues"],"Participant":[{"ePhase":"Crystal","tml_elements":["RegNum","nSampleNm","nStoichiometricCoef","ePhase"],"nSampleNm":1,"nStoichiometricCoef":"1","RegNum":{"tml_elements":["nOrgNum"],"nOrgNum":6}},{"nStoichiometricCoef":"-5","RegNum":{"nOrgNum":4,"tml_elements":["nOrgNum"]},"ePhase":"Gas","tml_elements":["RegNum","nStoichiometricCoef","ePhase"]},{"RegNum":{"tml_elements":["nOrgNum"],"nOrgNum":5},"nStoichiometricCoef":"-10","ePhase":"Crystal","tml_elements":["RegNum","nStoichiometricCoef","ePhase"]},{"nStoichiometricCoef":"-2","RegNum":{"nOrgNum":3,"tml_elements":["nOrgNum"]},"tml_elements":["RegNum","nStoichiometricCoef","ePhase"],"ePhase":"Gas"}],"eReactionType":"Formation of a compound from elements in their stable state","NumValues":[{"PropertyValue":[{"CombinedUncertainty":{"tml_elements":["nCombUncertAssessNum","nCombExpandUncertValue"],"nCombExpandUncertValue":2.6,"nCombUncertAssessNum":1},"nPropValue":-708.2,"tml_elements":["nPropNumber","nPropValue","nPropDigits","CombinedUncertainty"],"nPropDigits":4,"nPropNumber":1}],"tml_elements":["PropertyValue"],"VariableValue":[]}],"dateDateAdded":"1/14/2016","sCompiler":"BLS","Property":[{"nPropNumber":1,"tml_elements":["nPropNumber","Property-MethodID","nTemperature-K","nTemperatureDigits","nPressure-kPa","nPressureDigits","CombinedUncertainty"],"Property-MethodID":{"tml_elements":["PropertyGroup"],"PropertyGroup":{"ReactionStateChangeProp":{"ePropName":"Molar enthalpy of reaction, kJ/mol","eMethodName":"Static bomb calorimetry","tml_elements":["ePropName","eMethodName"]},"tml_elements":["ReactionStateChangeProp"]}},"nTemperatureDigits":5,"CombinedUncertainty":{"tml_elements":["nCombUncertAssessNum","sCombUncertEvaluator","eCombUncertEvalMethod","nCombUncertLevOfConfid"],"eCombUncertEvalMethod":"Propagation of evaluated standard uncertainties","nCombUncertLevOfConfid":95,"nCombUncertAssessNum":1,"sCombUncertEvaluator":"Data file compiler"},"nTemperature-K":"298.15","nPressure-kPa":"100","nPressureDigits":1}],"eExpPurpose":"Principal objective of the work"},{"NumValues":[{"VariableValue":[],"PropertyValue":[{"nPropDigits":4,"nPropNumber":1,"tml_elements":["nPropNumber","nPropValue","nPropDigits","CombinedUncertainty"],"CombinedUncertainty":{"nCombUncertAssessNum":1,"tml_elements":["nCombUncertAssessNum","nCombExpandUncertValue"],"nCombExpandUncertValue":2.8},"nPropValue":-572.5}],"tml_elements":["PropertyValue"]}],"dateDateAdded":"1/14/2016","sCompiler":"BLS","eExpPurpose":"Principal objective of the work","Property":[{"tml_elements":["nPropNumber","Property-MethodID","nTemperature-K","nTemperatureDigits","nPressure-kPa","nPressureDigits","CombinedUncertainty"],"nPropNumber":1,"nTemperatureDigits":5,"Property-MethodID":{"PropertyGroup":{"ReactionStateChangeProp":{"tml_elements":["ePropName","eMethodName"],"ePropName":"Molar enthalpy of reaction, kJ/mol","eMethodName":"Static bomb calorimetry"},"tml_elements":["ReactionStateChangeProp"]},"tml_elements":["PropertyGroup"]},"nPressureDigits":1,"nPressure-kPa":"100","nTemperature-K":"298.15","CombinedUncertainty":{"tml_elements":["nCombUncertAssessNum","sCombUncertEvaluator","eCombUncertEvalMethod","nCombUncertLevOfConfid"],"nCombUncertLevOfConfid":95,"eCombUncertEvalMethod":"Propagation of evaluated standard uncertainties","nCombUncertAssessNum":1,"sCombUncertEvaluator":"Data file compiler"}}],"sContributor":"XXX","nReactionDataNumber":8,"Participant":[{"ePhase":"Gas","tml_elements":["RegNum","nSampleNm","nStoichiometricCoef","ePhase"],"RegNum":{"nOrgNum":6,"tml_elements":["nOrgNum"]},"nSampleNm":1,"nStoichiometricCoef":"1"},{"nStoichiometricCoef":"-5","RegNum":{"nOrgNum":4,"tml_elements":["nOrgNum"]},"ePhase":"Gas","tml_elements":["RegNum","nStoichiometricCoef","ePhase"]},{"RegNum":{"tml_elements":["nOrgNum"],"nOrgNum":5},"nStoichiometricCoef":"-10","ePhase":"Crystal","tml_elements":["RegNum","nStoichiometricCoef","ePhase"]},{"RegNum":{"nOrgNum":3,"tml_elements":["nOrgNum"]},"nStoichiometricCoef":"-2","tml_elements":["RegNum","nStoichiometricCoef","ePhase"],"ePhase":"Gas"}],"tml_elements":["nReactionDataNumber","Participant","eExpPurpose","sCompiler","sContributor","dateDateAdded","eReactionType","Property","NumValues"],"eReactionType":"Formation of a compound from elements in their stable state"}],"THERMOML_MD5_CHECKSUM":"cf929e9fc0933086bc9d49d13eb22d02","Compound":[{"sFormulaMolec":"CO2","sCommonName":["carbon dioxide"],"tml_elements":["RegNum","sStandardInChI","sStandardInChIKey","sCommonName","sFormulaMolec"],"sStandardInChIKey":"CURLTUGMZLYLDI-UHFFFAOYSA-N","sStandardInChI":"InChI=1S/CO2/c2-1-3","RegNum":{"tml_elements":["nOrgNum"],"nOrgNum":1}},{"sStandardInChI":"InChI=1S/H2O/h1H2","RegNum":{"tml_elements":["nOrgNum"],"nOrgNum":2},"sStandardInChIKey":"XLYOFNOQVPJJNP-UHFFFAOYSA-N","tml_elements":["RegNum","sStandardInChI","sStandardInChIKey","sCommonName","sFormulaMolec"],"sCommonName":["water"],"sFormulaMolec":"H2O"},{"tml_elements":["RegNum","sStandardInChI","sStandardInChIKey","sCommonName","sFormulaMolec"],"sCommonName":["oxygen"],"sFormulaMolec":"O2","RegNum":{"nOrgNum":3,"tml_elements":["nOrgNum"]},"sStandardInChI":"InChI=1S/O2/c1-2","sStandardInChIKey":"MYMOFIZGZYHOMD-UHFFFAOYSA-N"},{"sCommonName":["hydrogen","hydrogen (normal)"],"tml_elements":["RegNum","sStandardInChI","sStandardInChIKey","sCommonName","sFormulaMolec"],"sFormulaMolec":"H2","sStandardInChIKey":"UFHFLCQGNIYNRP-UHFFFAOYSA-N","RegNum":{"tml_elements":["nOrgNum"],"nOrgNum":4},"sStandardInChI":"InChI=1S/H2/h1H"},{"RegNum":{"tml_elements":["nOrgNum"],"nOrgNum":5},"tml_elements":["RegNum","sCommonName","sFormulaMolec"],"sCommonName":["graphite"],"sFormulaMolec":"C"},{"sCommonName":["4-hydroxy-3-methoxycinnamic acid","3-(4-hydroxy-3-methoxyphenyl)acrylic acid","coniferic acid","ferulaic acid","ferulic acid"],"tml_elements":["RegNum","sStandardInChI","sStandardInChIKey","sCommonName","sFormulaMolec","Sample"],"Sample":[{"tml_elements":["nSampleNm","eSource","purity"],"purity":[{"tml_elements":["nStep","nPurityMass","nPurityMassDigits","eAnalMeth"],"nPurityMassDigits":2,"nStep":1,"nPurityMass":99,"eAnalMeth":["Stated by supplier"]}],"nSampleNm":1,"eSource":"Commercial source"}],"sFormulaMolec":"C10H10O4","sStandardInChIKey":"KSEBMYQBYZTDHS-UHFFFAOYSA-N","RegNum":{"nOrgNum":6,"tml_elements":["nOrgNum"]},"sStandardInChI":"InChI=1S/C10H10O4/c1-14-9-6-7(2-4-8(9)11)3-5-10(12)13/h2-6,11H,1H3,(H,12,13)"},{"sFormulaMolec":"C11H12O4","tml_elements":["RegNum","sStandardInChI","sStandardInChIKey","sCommonName","sFormulaMolec","Sample"],"Sample":[{"tml_elements":["nSampleNm","eSource","purity"],"purity":[{"eAnalMeth":["Stated by supplier"],"nPurityMass":99,"nStep":1,"tml_elements":["nStep","nPurityMass","nPurityMassDigits","eAnalMeth"],"nPurityMassDigits":2}],"eSource":"Commercial source","nSampleNm":1}],"sCommonName":["methyl 3-(4-hydroxy-3-methoxyphenyl)-2-propenoate","2-propenoic acid, 3-(4-hydroxy-3-methoxyphenyl)-, methyl ester","3-(4-hydroxy-3-methoxyphenyl)-2-propenoic acid, methyl ester","methyl ferulate"],"sStandardInChI":"InChI=1S/C11H12O4/c1-14-10-7-8(3-5-9(10)12)4-6-11(13)15-2/h3-7,12H,1-2H3","RegNum":{"nOrgNum":7,"tml_elements":["nOrgNum"]},"sStandardInChIKey":"AUJXJFHANFIVKH-UHFFFAOYSA-N"}]}