{"Version":{"nVersionMajor":2,"nVersionMinor":0,"tml_elements":["nVersionMajor","nVersionMinor"]},"tml_elements":["Version","Citation","Compound","ReactionData"],"ReactionData":[{"NumValues":[{"tml_elements":["PropertyValue"],"PropertyValue":[{"nPropDigits":6,"nPropNumber":1,"tml_elements":["nPropNumber","nPropValue","nPropDigits","CombinedUncertainty"],"CombinedUncertainty":{"tml_elements":["nCombUncertAssessNum","nCombExpandUncertValue"],"nCombExpandUncertValue":29,"nCombUncertAssessNum":1},"nPropValue":-3734.64}],"VariableValue":[]}],"sCompiler":"AB","dateDateAdded":"1/1/2018","Property":[{"nPropNumber":1,"Property-MethodID":{"tml_elements":["PropertyGroup"],"PropertyGroup":{"tml_elements":["ReactionStateChangeProp"],"ReactionStateChangeProp":{"tml_elements":["ePropName","eMethodName"],"eMethodName":"Solution calorimetry","ePropName":"Molar enthalpy of reaction, kJ/mol"}}},"tml_elements":["nPropNumber","Property-MethodID","nTemperature-K","nTemperatureDigits","nPressure-kPa","nPressureDigits","CombinedUncertainty"],"nTemperatureDigits":5,"nTemperature-K":"298.15","CombinedUncertainty":{"sCombUncertEvaluator":"Data file compiler","nCombUncertAssessNum":1,"nCombUncertLevOfConfid":95,"eCombUncertEvalMethod":"Propagation of evaluated standard uncertainties","tml_elements":["nCombUncertAssessNum","sCombUncertEvaluator","eCombUncertEvalMethod","nCombUncertLevOfConfid"]},"nPressureDigits":1,"nPressure-kPa":"100"}],"eExpPurpose":"Principal objective of the work","sContributor":"TRC","nReactionDataNumber":1,"eReactionType":"Formation of a compound from elements in their stable state","Participant":[{"ePhase":"Crystal","tml_elements":["RegNum","nStoichiometricCoef","ePhase"],"RegNum":{"nOrgNum":1,"tml_elements":["nOrgNum"]},"nStoichiometricCoef":"-1"},{"ePhase":"Crystal","tml_elements":["RegNum","nStoichiometricCoef","ePhase"],"nStoichiometricCoef":"-3","RegNum":{"nOrgNum":2,"tml_elements":["nOrgNum"]}},{"nSampleNm":1,"nStoichiometricCoef":"1","RegNum":{"tml_elements":["nOrgNum"],"nOrgNum":5},"ePhase":"Crystal","tml_elements":["RegNum","nSampleNm","nStoichiometricCoef","ePhase"]},{"nStoichiometricCoef":"-3","RegNum":{"nOrgNum":3,"tml_elements":["nOrgNum"]},"tml_elements":["RegNum","nStoichiometricCoef","ePhase"],"ePhase":"Ideal gas"},{"nStoichiometricCoef":"-6","RegNum":{"nOrgNum":4,"tml_elements":["nOrgNum"]},"tml_elements":["RegNum","nStoichiometricCoef","ePhase"],"ePhase":"Ideal gas"}],"tml_elements":["nReactionDataNumber","Participant","eExpPurpose","sCompiler","sContributor","dateDateAdded","eReactionType","Property","NumValues"]}],"THERMOML_MD5_CHECKSUM":"c9aa2afe2d80cb9879a5868282d29ec2","Citation":{"tml_elements":["TRCRefID","eType","eSourceType","sAuthor","sPubName","yrPubYr","dateCit","sTitle","sAbstract","sKeyword","sDOI","sVol","sPage"],"sAuthor":["Matskevich, N. I.","Wright, A. J.","Wolf, T.[Th.]","Vyazovkin, I. V.","Anyfrieva, O. I.","Matskevich, M. Y."],"sKeyword":["Aluminum dihydrogen tripolyphosphate","Solution calorimetry","Thermochemical characteristics","Standard molar enthalpy of formation"],"TRCRefID":{"yrYrPub":"2017","sAuthor1":"mat","sAuthor2":"wri","tml_elements":["yrYrPub","sAuthor1","sAuthor2","nAuthorn"],"nAuthorn":"0"},"sAbstract":"For the first time solution enthalpies of Al, H3PO4, and AlH2P3O10  2H2O in 2 mol dm 3 NaOH have been measured as following: DsolH 1 = 404.75 +- 4.36 kJ mol 1; DsolH 2 = 189.48 +- 0.54 kJ mol 1; DsolH 3 = 238.95 +- 3.32 kJ mol 1. On the basis of experimental data the standard molar enthalpy of formation and enthalpies of some reactions with participation of AlH2P3O10  H2O were calculated. The enthalpy of interaction of Al with H3PO4 is DrH  = 734.24 +- 5.56 kJ mol 1. It was established that according to thermodynamic data Al2O3 can react with H3PO4 forming investigated compound at 513 K. Employed compound (AlH2P3O10  H2O) can react with H2O with formation of AlPO4 and phosphorous acid. All the data were obtained for the first time.","sTitle":"Aluminum dihydrogen tripolyphosphate: Thermodynamic characteristics","sDOI":"10.1016/j.jct.2017.03.017","eSourceType":"Original","sVol":"111","eType":"journal","sPage":"27-30","dateCit":"2020-09-29","sPubName":"J. Chem. Thermodyn.","yrPubYr":"2017"},"Compound":[{"RegNum":{"tml_elements":["nOrgNum"],"nOrgNum":1},"sStandardInChI":"InChI=1S/Al","sCommonName":["aluminum"],"tml_elements":["RegNum","sStandardInChI","sStandardInChIKey","sCommonName","sFormulaMolec"],"sFormulaMolec":"Al","sStandardInChIKey":"XAGFODPZIPBFFR-UHFFFAOYSA-N"},{"sFormulaMolec":"P","tml_elements":["RegNum","sStandardInChI","sStandardInChIKey","sCommonName","sFormulaMolec"],"sCommonName":["phosphorus","phosphorus-31","red phosphorus"],"RegNum":{"tml_elements":["nOrgNum"],"nOrgNum":2},"sStandardInChI":"InChI=1S/P","sStandardInChIKey":"OAICVXFJPJFONN-UHFFFAOYSA-N"},{"sCommonName":["hydrogen","hydrogen (normal)"],"tml_elements":["RegNum","sStandardInChI","sStandardInChIKey","sCommonName","sFormulaMolec"],"sStandardInChIKey":"UFHFLCQGNIYNRP-UHFFFAOYSA-N","sFormulaMolec":"H2","RegNum":{"nOrgNum":3,"tml_elements":["nOrgNum"]},"sStandardInChI":"InChI=1S/H2/h1H"},{"sFormulaMolec":"O2","tml_elements":["RegNum","sStandardInChI","sStandardInChIKey","sCommonName","sFormulaMolec"],"sCommonName":["oxygen"],"sStandardInChIKey":"MYMOFIZGZYHOMD-UHFFFAOYSA-N","sStandardInChI":"InChI=1S/O2/c1-2","RegNum":{"tml_elements":["nOrgNum"],"nOrgNum":4}},{"sStandardInChIKey":"XWOWDYGXIQFFID-UHFFFAOYSA-K","sStandardInChI":"InChI=1S/Al.H5O10P3.2H2O/c;1-11(2,3)9-13(7,8)10-12(4,5)6;;/h;(H,7,8)(H2,1,2,3)(H2,4,5,6);2*1H2/q+3;;;/p-3","RegNum":{"tml_elements":["nOrgNum"],"nOrgNum":5},"tml_elements":["RegNum","sStandardInChI","sStandardInChIKey","sCommonName","sFormulaMolec","Sample"],"sCommonName":["aluminum dihydrogen tripolyphosphate dihydrate","aluminum triphosphoric acid dihydrate","monoaluminum triphosphate dihydrate (AlH2P3O10*2H2O)"],"Sample":[{"tml_elements":["nSampleNm","eSource","purity"],"purity":[{"nPurityMass":99,"eAnalMeth":["Chemical analysis"],"nStep":1,"nPurityMassDigits":2,"tml_elements":["nStep","nPurityMass","nPurityMassDigits","eAnalMeth"]}],"nSampleNm":1,"eSource":"Synthesized by the authors"}],"sFormulaMolec":"AlH6O12P3"}]}