{"tml_elements":["Version","Citation","Compound","PureOrMixtureData","ReactionData"],"PureOrMixtureData":[{"Variable":[{"VariableID":{"VariableType":{"eTemperature":"Temperature, K","tml_elements":["eTemperature"]},"tml_elements":["VariableType"]},"nVarNumber":1,"VarPhaseID":{"tml_elements":["eVarPhase"],"eVarPhase":"Gas"},"tml_elements":["nVarNumber","VariableID","VarPhaseID"]},{"VariableID":{"VariableType":{"tml_elements":["ePressure"],"ePressure":"Pressure, kPa"},"tml_elements":["VariableType"]},"nVarNumber":2,"VarPhaseID":{"eVarPhase":"Gas","tml_elements":["eVarPhase"]},"tml_elements":["nVarNumber","VariableID","VarPhaseID"]}],"sContributor":"RDC","Component":[{"nSampleNm":1,"RegNum":{"tml_elements":["nOrgNum"],"nOrgNum":5},"tml_elements":["RegNum","nSampleNm"]}],"PhaseID":[{"tml_elements":["ePhase"],"ePhase":"Gas"}],"tml_elements":["nPureOrMixtureDataNumber","Component","eExpPurpose","sCompiler","sContributor","dateDateAdded","Property","PhaseID","Variable","NumValues"],"NumValues":[{"VariableValue":[{"nVarValue":328.9,"tml_elements":["nVarNumber","nVarValue","nVarDigits"],"nVarDigits":4,"nVarNumber":1},{"nVarDigits":1,"tml_elements":["nVarNumber","nVarValue","nVarDigits"],"nVarNumber":2,"nVarValue":100}],"tml_elements":["VariableValue","PropertyValue"],"PropertyValue":[{"nPropNumber":1,"nPropDigits":4,"tml_elements":["nPropNumber","nPropValue","nPropDigits","CombinedUncertainty"],"CombinedUncertainty":{"tml_elements":["nCombUncertAssessNum","nCombExpandUncertValue"],"nCombExpandUncertValue":1.71,"nCombUncertAssessNum":1},"nPropValue":73.39}]}],"sCompiler":"RDC","nPureOrMixtureDataNumber":1,"dateDateAdded":"10/24/2006","Property":[{"nRefPressureDigits":1,"Property-MethodID":{"tml_elements":["PropertyGroup"],"PropertyGroup":{"tml_elements":["HeatCapacityAndDerivedProp"],"HeatCapacityAndDerivedProp":{"tml_elements":["ePropName","eMethodName"],"eMethodName":"Drop calorimetry","ePropName":"Molar enthalpy, kJ/mol"}}},"RefPhaseID":{"tml_elements":["eRefPhase"],"eRefPhase":"Liquid"},"nRefTemp":"298.15","ePresentation":"Difference with the reference state, X-X(REF)","eRefStateType":"Reference phase with the same composition at fixed temperature and pressure","nRefPressure":"100","CombinedUncertainty":{"nCombUncertAssessNum":1,"sCombUncertEvaluator":"Data file compiler","tml_elements":["nCombUncertAssessNum","sCombUncertEvaluator","eCombUncertEvalMethod","nCombUncertLevOfConfid"],"eCombUncertEvalMethod":"Propagation of evaluated standard uncertainties","nCombUncertLevOfConfid":95},"tml_elements":["nPropNumber","Property-MethodID","PropPhaseID","ePresentation","eRefStateType","nRefTemp","nRefTempDigits","nRefPressure","nRefPressureDigits","RefPhaseID","CombinedUncertainty"],"nPropNumber":1,"PropPhaseID":{"ePropPhase":"Gas","tml_elements":["ePropPhase"]},"nRefTempDigits":5}],"eExpPurpose":"Principal objective of the work"},{"Component":[{"tml_elements":["RegNum","nSampleNm"],"RegNum":{"nOrgNum":6,"tml_elements":["nOrgNum"]},"nSampleNm":1}],"PhaseID":[{"tml_elements":["ePhase"],"ePhase":"Gas"}],"tml_elements":["nPureOrMixtureDataNumber","Component","eExpPurpose","sCompiler","sContributor","dateDateAdded","Property","PhaseID","Variable","NumValues"],"Variable":[{"VariableID":{"tml_elements":["VariableType"],"VariableType":{"eTemperature":"Temperature, K","tml_elements":["eTemperature"]}},"nVarNumber":1,"VarPhaseID":{"eVarPhase":"Gas","tml_elements":["eVarPhase"]},"tml_elements":["nVarNumber","VariableID","VarPhaseID"]},{"tml_elements":["nVarNumber","VariableID","VarPhaseID"],"nVarNumber":2,"VarPhaseID":{"eVarPhase":"Gas","tml_elements":["eVarPhase"]},"VariableID":{"VariableType":{"tml_elements":["ePressure"],"ePressure":"Pressure, kPa"},"tml_elements":["VariableType"]}}],"sContributor":"RDC","Property":[{"ePresentation":"Difference with the reference state, X-X(REF)","RefPhaseID":{"tml_elements":["eRefPhase"],"eRefPhase":"Liquid"},"Property-MethodID":{"tml_elements":["PropertyGroup"],"PropertyGroup":{"HeatCapacityAndDerivedProp":{"ePropName":"Molar enthalpy, kJ/mol","eMethodName":"Drop calorimetry","tml_elements":["ePropName","eMethodName"]},"tml_elements":["HeatCapacityAndDerivedProp"]}},"nRefPressureDigits":1,"nRefTemp":"298.15","nPropNumber":1,"PropPhaseID":{"ePropPhase":"Gas","tml_elements":["ePropPhase"]},"tml_elements":["nPropNumber","Property-MethodID","PropPhaseID","ePresentation","eRefStateType","nRefTemp","nRefTempDigits","nRefPressure","nRefPressureDigits","RefPhaseID","CombinedUncertainty"],"nRefTempDigits":5,"eRefStateType":"Reference phase with the same composition at fixed temperature and pressure","nRefPressure":"100","CombinedUncertainty":{"nCombUncertLevOfConfid":95,"eCombUncertEvalMethod":"Propagation of evaluated standard uncertainties","tml_elements":["nCombUncertAssessNum","sCombUncertEvaluator","eCombUncertEvalMethod","nCombUncertLevOfConfid"],"sCombUncertEvaluator":"Data file compiler","nCombUncertAssessNum":1}}],"eExpPurpose":"Principal objective of the work","NumValues":[{"VariableValue":[{"nVarNumber":1,"nVarDigits":4,"tml_elements":["nVarNumber","nVarValue","nVarDigits"],"nVarValue":326.8},{"nVarValue":100,"nVarNumber":2,"tml_elements":["nVarNumber","nVarValue","nVarDigits"],"nVarDigits":1}],"tml_elements":["VariableValue","PropertyValue"],"PropertyValue":[{"tml_elements":["nPropNumber","nPropValue","nPropDigits","CombinedUncertainty"],"nPropDigits":4,"nPropNumber":1,"CombinedUncertainty":{"nCombUncertAssessNum":1,"nCombExpandUncertValue":1.68,"tml_elements":["nCombUncertAssessNum","nCombExpandUncertValue"]},"nPropValue":68.8}]}],"sCompiler":"RDC","nPureOrMixtureDataNumber":2,"dateDateAdded":"10/24/2006"},{"sContributor":"RDC","PhaseID":[{"tml_elements":["ePhase"],"ePhase":"Gas"}],"tml_elements":["nPureOrMixtureDataNumber","Component","eExpPurpose","sCompiler","sContributor","dateDateAdded","Property","PhaseID","Variable","NumValues"],"Variable":[{"VariableID":{"tml_elements":["VariableType"],"VariableType":{"eTemperature":"Temperature, K","tml_elements":["eTemperature"]}},"tml_elements":["nVarNumber","VariableID","VarPhaseID"],"nVarNumber":1,"VarPhaseID":{"eVarPhase":"Gas","tml_elements":["eVarPhase"]}},{"VariableID":{"VariableType":{"tml_elements":["ePressure"],"ePressure":"Pressure, kPa"},"tml_elements":["VariableType"]},"nVarNumber":2,"VarPhaseID":{"eVarPhase":"Gas","tml_elements":["eVarPhase"]},"tml_elements":["nVarNumber","VariableID","VarPhaseID"]}],"Component":[{"tml_elements":["RegNum","nSampleNm"],"RegNum":{"nOrgNum":7,"tml_elements":["nOrgNum"]},"nSampleNm":1}],"sCompiler":"RDC","dateDateAdded":"10/24/2006","nPureOrMixtureDataNumber":3,"NumValues":[{"VariableValue":[{"nVarValue":339.1,"nVarDigits":4,"tml_elements":["nVarNumber","nVarValue","nVarDigits"],"nVarNumber":1},{"tml_elements":["nVarNumber","nVarValue","nVarDigits"],"nVarDigits":1,"nVarNumber":2,"nVarValue":100}],"tml_elements":["VariableValue","PropertyValue"],"PropertyValue":[{"CombinedUncertainty":{"tml_elements":["nCombUncertAssessNum","nCombExpandUncertValue"],"nCombExpandUncertValue":1.92,"nCombUncertAssessNum":1},"nPropValue":82.61,"nPropDigits":4,"nPropNumber":1,"tml_elements":["nPropNumber","nPropValue","nPropDigits","CombinedUncertainty"]}]}],"eExpPurpose":"Principal objective of the work","Property":[{"nPropNumber":1,"PropPhaseID":{"ePropPhase":"Gas","tml_elements":["ePropPhase"]},"tml_elements":["nPropNumber","Property-MethodID","PropPhaseID","ePresentation","eRefStateType","nRefTemp","nRefTempDigits","nRefPressure","nRefPressureDigits","RefPhaseID","CombinedUncertainty"],"nRefTempDigits":5,"eRefStateType":"Reference phase with the same composition at fixed temperature and pressure","nRefPressure":"100","CombinedUncertainty":{"sCombUncertEvaluator":"Data file compiler","nCombUncertAssessNum":1,"eCombUncertEvalMethod":"Propagation of evaluated standard uncertainties","nCombUncertLevOfConfid":95,"tml_elements":["nCombUncertAssessNum","sCombUncertEvaluator","eCombUncertEvalMethod","nCombUncertLevOfConfid"]},"ePresentation":"Difference with the reference state, X-X(REF)","Property-MethodID":{"tml_elements":["PropertyGroup"],"PropertyGroup":{"HeatCapacityAndDerivedProp":{"tml_elements":["ePropName","eMethodName"],"eMethodName":"Drop calorimetry","ePropName":"Molar enthalpy, kJ/mol"},"tml_elements":["HeatCapacityAndDerivedProp"]}},"RefPhaseID":{"tml_elements":["eRefPhase"],"eRefPhase":"Liquid"},"nRefPressureDigits":1,"nRefTemp":"298.15"}]}],"ReactionData":[{"Participant":[{"ePhase":"Liquid","tml_elements":["RegNum","nSampleNm","nStoichiometricCoef","ePhase"],"RegNum":{"tml_elements":["nOrgNum"],"nOrgNum":6},"nSampleNm":1,"nStoichiometricCoef":"-1"},{"ePhase":"Ideal gas","tml_elements":["RegNum","nStoichiometricCoef","ePhase"],"RegNum":{"nOrgNum":1,"tml_elements":["nOrgNum"]},"nStoichiometricCoef":"7"},{"nStoichiometricCoef":".5","RegNum":{"nOrgNum":2,"tml_elements":["nOrgNum"]},"ePhase":"Ideal gas","tml_elements":["RegNum","nStoichiometricCoef","ePhase"]},{"RegNum":{"nOrgNum":3,"tml_elements":["nOrgNum"]},"nStoichiometricCoef":"7.5","ePhase":"Liquid","tml_elements":["RegNum","nStoichiometricCoef","ePhase"]},{"nStoichiometricCoef":"-10.25","RegNum":{"tml_elements":["nOrgNum"],"nOrgNum":4},"tml_elements":["RegNum","nStoichiometricCoef","ePhase"],"ePhase":"Ideal gas"}],"tml_elements":["nReactionDataNumber","Participant","eExpPurpose","sCompiler","sContributor","dateDateAdded","eReactionType","Property","NumValues"],"eReactionType":"Combustion with oxygen","nReactionDataNumber":1,"sContributor":"JCE","eExpPurpose":"Principal objective of the work","Property":[{"nPressure-kPa":"100","nPressureDigits":1,"CombinedUncertainty":{"nCombUncertAssessNum":1,"sCombUncertEvaluator":"Data file compiler","tml_elements":["nCombUncertAssessNum","sCombUncertEvaluator","eCombUncertEvalMethod","nCombUncertLevOfConfid"],"nCombUncertLevOfConfid":95,"eCombUncertEvalMethod":"Propagation of evaluated standard uncertainties"},"nTemperature-K":"298.15","nTemperatureDigits":5,"Property-MethodID":{"PropertyGroup":{"tml_elements":["ReactionStateChangeProp"],"ReactionStateChangeProp":{"tml_elements":["ePropName","eMethodName"],"ePropName":"Specific internal energy of reaction at constant volume, J/g","eMethodName":"Static bomb calorimetry"}},"tml_elements":["PropertyGroup"]},"tml_elements":["nPropNumber","Property-MethodID","nTemperature-K","nTemperatureDigits","nPressure-kPa","nPressureDigits","CombinedUncertainty"],"nPropNumber":1}],"dateDateAdded":"10/24/2006","sCompiler":"JCE","NumValues":[{"PropertyValue":[{"nPropNumber":1,"nPropDigits":6,"tml_elements":["nPropNumber","nPropValue","nPropDigits","CombinedUncertainty"],"nPropValue":-35513.9,"CombinedUncertainty":{"tml_elements":["nCombUncertAssessNum","nCombExpandUncertValue"],"nCombExpandUncertValue":10,"nCombUncertAssessNum":1}}],"tml_elements":["PropertyValue"],"VariableValue":[]}]},{"sContributor":"JCE","nReactionDataNumber":2,"eReactionType":"Combustion with oxygen","Participant":[{"tml_elements":["RegNum","nSampleNm","nStoichiometricCoef","ePhase"],"ePhase":"Liquid","nStoichiometricCoef":"-1","nSampleNm":1,"RegNum":{"nOrgNum":7,"tml_elements":["nOrgNum"]}},{"nStoichiometricCoef":"7","RegNum":{"nOrgNum":1,"tml_elements":["nOrgNum"]},"ePhase":"Ideal gas","tml_elements":["RegNum","nStoichiometricCoef","ePhase"]},{"RegNum":{"nOrgNum":2,"tml_elements":["nOrgNum"]},"nStoichiometricCoef":".5","ePhase":"Ideal gas","tml_elements":["RegNum","nStoichiometricCoef","ePhase"]},{"tml_elements":["RegNum","nStoichiometricCoef","ePhase"],"ePhase":"Liquid","nStoichiometricCoef":"7.5","RegNum":{"tml_elements":["nOrgNum"],"nOrgNum":3}},{"ePhase":"Ideal gas","tml_elements":["RegNum","nStoichiometricCoef","ePhase"],"RegNum":{"nOrgNum":4,"tml_elements":["nOrgNum"]},"nStoichiometricCoef":"-10.25"}],"tml_elements":["nReactionDataNumber","Participant","eExpPurpose","sCompiler","sContributor","dateDateAdded","eReactionType","Property","NumValues"],"NumValues":[{"VariableValue":[],"tml_elements":["PropertyValue"],"PropertyValue":[{"nPropNumber":1,"nPropDigits":6,"tml_elements":["nPropNumber","nPropValue","nPropDigits","CombinedUncertainty"],"nPropValue":-35289.3,"CombinedUncertainty":{"tml_elements":["nCombUncertAssessNum","nCombExpandUncertValue"],"nCombExpandUncertValue":6,"nCombUncertAssessNum":1}}]}],"sCompiler":"JCE","dateDateAdded":"10/24/2006","eExpPurpose":"Principal objective of the work","Property":[{"CombinedUncertainty":{"sCombUncertEvaluator":"Data file compiler","nCombUncertAssessNum":1,"eCombUncertEvalMethod":"Propagation of evaluated standard uncertainties","nCombUncertLevOfConfid":95,"tml_elements":["nCombUncertAssessNum","sCombUncertEvaluator","eCombUncertEvalMethod","nCombUncertLevOfConfid"]},"nTemperature-K":"298.15","nPressure-kPa":"100","nPressureDigits":1,"Property-MethodID":{"tml_elements":["PropertyGroup"],"PropertyGroup":{"tml_elements":["ReactionStateChangeProp"],"ReactionStateChangeProp":{"tml_elements":["ePropName","eMethodName"],"ePropName":"Specific internal energy of reaction at constant volume, J/g","eMethodName":"Static bomb calorimetry"}}},"nPropNumber":1,"nTemperatureDigits":5,"tml_elements":["nPropNumber","Property-MethodID","nTemperature-K","nTemperatureDigits","nPressure-kPa","nPressureDigits","CombinedUncertainty"]}]},{"Property":[{"nTemperatureDigits":5,"Property-MethodID":{"tml_elements":["PropertyGroup"],"PropertyGroup":{"tml_elements":["ReactionStateChangeProp"],"ReactionStateChangeProp":{"tml_elements":["ePropName","eMethodName"],"eMethodName":"Static bomb calorimetry","ePropName":"Specific internal energy of reaction at constant volume, J/g"}}},"nPressureDigits":1,"nPressure-kPa":"100","CombinedUncertainty":{"nCombUncertLevOfConfid":95,"eCombUncertEvalMethod":"Propagation of evaluated standard uncertainties","tml_elements":["nCombUncertAssessNum","sCombUncertEvaluator","eCombUncertEvalMethod","nCombUncertLevOfConfid"],"sCombUncertEvaluator":"Data file compiler","nCombUncertAssessNum":1},"nTemperature-K":"298.15","tml_elements":["nPropNumber","Property-MethodID","nTemperature-K","nTemperatureDigits","nPressure-kPa","nPressureDigits","CombinedUncertainty"],"nPropNumber":1}],"eExpPurpose":"Principal objective of the work","NumValues":[{"tml_elements":["PropertyValue"],"PropertyValue":[{"nPropNumber":1,"nPropDigits":6,"tml_elements":["nPropNumber","nPropValue","nPropDigits","CombinedUncertainty"],"nPropValue":-35537.7,"CombinedUncertainty":{"tml_elements":["nCombUncertAssessNum","nCombExpandUncertValue"],"nCombExpandUncertValue":10.2,"nCombUncertAssessNum":1}}],"VariableValue":[]}],"sCompiler":"JCE","dateDateAdded":"10/24/2006","eReactionType":"Combustion with oxygen","tml_elements":["nReactionDataNumber","Participant","eExpPurpose","sCompiler","sContributor","dateDateAdded","eReactionType","Property","NumValues"],"Participant":[{"tml_elements":["RegNum","nSampleNm","nStoichiometricCoef","ePhase"],"ePhase":"Liquid","RegNum":{"tml_elements":["nOrgNum"],"nOrgNum":5},"nStoichiometricCoef":"-1","nSampleNm":1},{"ePhase":"Ideal gas","tml_elements":["RegNum","nStoichiometricCoef","ePhase"],"nStoichiometricCoef":"7","RegNum":{"tml_elements":["nOrgNum"],"nOrgNum":1}},{"RegNum":{"nOrgNum":2,"tml_elements":["nOrgNum"]},"nStoichiometricCoef":".5","ePhase":"Ideal gas","tml_elements":["RegNum","nStoichiometricCoef","ePhase"]},{"ePhase":"Liquid","tml_elements":["RegNum","nStoichiometricCoef","ePhase"],"RegNum":{"nOrgNum":3,"tml_elements":["nOrgNum"]},"nStoichiometricCoef":"7.5"},{"RegNum":{"nOrgNum":4,"tml_elements":["nOrgNum"]},"nStoichiometricCoef":"-10.25","tml_elements":["RegNum","nStoichiometricCoef","ePhase"],"ePhase":"Ideal gas"}],"sContributor":"JCE","nReactionDataNumber":3}],"THERMOML_MD5_CHECKSUM":"70308d2c3106e1167a297ba9cbe04ef7","Compound":[{"RegNum":{"tml_elements":["nOrgNum"],"nOrgNum":1},"sStandardInChI":"InChI=1S/CO2/c2-1-3","sStandardInChIKey":"CURLTUGMZLYLDI-UHFFFAOYSA-N","sCommonName":["carbon dioxide"],"tml_elements":["RegNum","sStandardInChI","sStandardInChIKey","sCommonName","sFormulaMolec"],"sFormulaMolec":"CO2"},{"RegNum":{"tml_elements":["nOrgNum"],"nOrgNum":2},"sStandardInChI":"InChI=1S/N2/c1-2","tml_elements":["RegNum","sStandardInChI","sStandardInChIKey","sCommonName","sFormulaMolec"],"sCommonName":["nitrogen"],"sStandardInChIKey":"IJGRMHOSHXDMSA-UHFFFAOYSA-N","sFormulaMolec":"N2"},{"sStandardInChIKey":"XLYOFNOQVPJJNP-UHFFFAOYSA-N","sStandardInChI":"InChI=1S/H2O/h1H2","RegNum":{"nOrgNum":3,"tml_elements":["nOrgNum"]},"sFormulaMolec":"H2O","tml_elements":["RegNum","sStandardInChI","sStandardInChIKey","sCommonName","sFormulaMolec"],"sCommonName":["water"]},{"sStandardInChIKey":"MYMOFIZGZYHOMD-UHFFFAOYSA-N","sStandardInChI":"InChI=1S/O2/c1-2","RegNum":{"nOrgNum":4,"tml_elements":["nOrgNum"]},"sFormulaMolec":"O2","tml_elements":["RegNum","sStandardInChI","sStandardInChIKey","sCommonName","sFormulaMolec"],"sCommonName":["oxygen"]},{"Sample":[{"eSource":"Commercial source","nSampleNm":1,"tml_elements":["nSampleNm","eSource","purity"],"purity":[{"nStep":1,"tml_elements":["nStep","ePurifMethod"],"ePurifMethod":["Fractional distillation"]},{"nStep":2,"nPurityMassDigits":5,"tml_elements":["nStep","nPurityMass","nPurityMassDigits","eAnalMeth"],"nPurityMass":99.427,"eAnalMeth":["CO2 yield in combustion products"]}]}],"tml_elements":["RegNum","sStandardInChI","sStandardInChIKey","sCommonName","sFormulaMolec","Sample"],"sCommonName":["1-methyl-2-piperidinemethanol","2-hydroxymethyl-1-methylpiperidine"],"sFormulaMolec":"C7H15NO","sStandardInChIKey":"HXXJMMLIEYAFOZ-UHFFFAOYSA-N","sStandardInChI":"InChI=1S/C7H15NO/c1-8-5-3-2-4-7(8)6-9/h7,9H,2-6H2,1H3","RegNum":{"tml_elements":["nOrgNum"],"nOrgNum":5}},{"sStandardInChIKey":"KZTWONRVIPPDKH-UHFFFAOYSA-N","RegNum":{"nOrgNum":6,"tml_elements":["nOrgNum"]},"sStandardInChI":"InChI=1S/C7H15NO/c9-7-6-8-4-2-1-3-5-8/h9H,1-7H2","sCommonName":["1-(2-hydroxyethyl)piperidine","1-piperidineethanol","N-(2-hydroxyethyl)piperidine","N-piperidineethanol"],"Sample":[{"eSource":"Commercial source","nSampleNm":1,"tml_elements":["nSampleNm","eSource","purity"],"purity":[{"tml_elements":["nStep","ePurifMethod"],"nStep":1,"ePurifMethod":["Fractional distillation"]},{"nStep":2,"tml_elements":["nStep","nPurityMass","nPurityMassDigits","eAnalMeth"],"nPurityMassDigits":4,"eAnalMeth":["CO2 yield in combustion products"],"nPurityMass":99.68}]}],"tml_elements":["RegNum","sStandardInChI","sStandardInChIKey","sCommonName","sFormulaMolec","Sample"],"sFormulaMolec":"C7H15NO"},{"RegNum":{"nOrgNum":7,"tml_elements":["nOrgNum"]},"sStandardInChI":"InChI=1S/C7H15NO/c9-6-4-7-3-1-2-5-8-7/h7-9H,1-6H2","sStandardInChIKey":"PTHDBHDZSMGHKF-UHFFFAOYSA-N","tml_elements":["RegNum","sStandardInChI","sStandardInChIKey","sCommonName","sFormulaMolec","Sample"],"Sample":[{"tml_elements":["nSampleNm","eSource","purity"],"purity":[{"ePurifMethod":["Fractional distillation"],"tml_elements":["nStep","ePurifMethod"],"nStep":1},{"eAnalMeth":["CO2 yield in combustion products"],"nPurityMass":99.986,"tml_elements":["nStep","nPurityMass","nPurityMassDigits","eAnalMeth"],"nPurityMassDigits":5,"nStep":2}],"eSource":"Commercial source","nSampleNm":1}],"sCommonName":["2-(2-hydroxyethyl)piperidine","2-piperidineethanol"],"sFormulaMolec":"C7H15NO"}],"Citation":{"sVol":"38","eType":"journal","sPage":"1461-1466","yrPubYr":"2006","sPubName":"J. Chem. Thermodyn.","sIDNum":"11","dateCit":"2020-09-29","sAuthor":["Ribeiro da Silva, M. A. V.[Manuel A. V.]","Cabral, J. I. T. A.[Joana I. T. A.]"],"sKeyword":["combustion calorimetry","calvet microcalorimetry","enthalpy of combustion","enthalpy of sublimation","enthalpy of formation","1-methyl-2-piperidinemethanol","1-piperidineethanol","2-piperidineethanol"],"tml_elements":["TRCRefID","eType","eSourceType","sAuthor","sPubName","yrPubYr","dateCit","sTitle","sAbstract","sKeyword","sDOI","sIDNum","sVol","sPage"],"sDOI":"10.1016/j.jct.2006.01.005","sTitle":"Standard molar enthalpies of formation of 1-methyl-2-piperidinemethanol, 1-piperidineethanol, and 2-piperidineethanol","TRCRefID":{"yrYrPub":"2006","nAuthorn":"4","tml_elements":["yrYrPub","sAuthor1","sAuthor2","nAuthorn"],"sAuthor1":"rib","sAuthor2":"cab"},"sAbstract":"The standard (p  = 0.1 MPa) molar enthalpies of combustion, DcH m, for the liquid compounds 1-methyl-2-piperidinemethanol, 1-piperidineethanol,  and 2-piperidineethanol, were measured by static bomb calorimetry, in oxygen, at T = 298.15 K. The standard molar  enthalpies of vaporization, at T = 298.15 K, of these three liquid compounds were determined by Calvet microcalorimetry.  These values, were used to derive the standard molar enthalpies of formation of the compounds, at T = 298.15 K, in their liquid and  gaseous phase, respectively. The derived standard molar enthalpies of formation, in the gaseous state, are analyzed in terms of enthalpic  increments and interpreted in terms of molecular structure.","eSourceType":"Original"},"Version":{"tml_elements":["nVersionMajor","nVersionMinor"],"nVersionMinor":0,"nVersionMajor":2}}