{"THERMOML_MD5_CHECKSUM":"c361390a9291e7b3e6ec893f5fd5ff1b","Compound":[{"sStandardInChIKey":"CURLTUGMZLYLDI-UHFFFAOYSA-N","RegNum":{"tml_elements":["nOrgNum"],"nOrgNum":1},"sStandardInChI":"InChI=1S/CO2/c2-1-3","tml_elements":["RegNum","sStandardInChI","sStandardInChIKey","sCommonName","sFormulaMolec"],"sCommonName":["carbon dioxide"],"sFormulaMolec":"CO2"},{"sFormulaMolec":"N2","tml_elements":["RegNum","sStandardInChI","sStandardInChIKey","sCommonName","sFormulaMolec"],"sCommonName":["nitrogen"],"sStandardInChIKey":"IJGRMHOSHXDMSA-UHFFFAOYSA-N","sStandardInChI":"InChI=1S/N2/c1-2","RegNum":{"nOrgNum":2,"tml_elements":["nOrgNum"]}},{"sFormulaMolec":"H2O","tml_elements":["RegNum","sStandardInChI","sStandardInChIKey","sCommonName","sFormulaMolec"],"sCommonName":["water"],"sStandardInChI":"InChI=1S/H2O/h1H2","RegNum":{"nOrgNum":3,"tml_elements":["nOrgNum"]},"sStandardInChIKey":"XLYOFNOQVPJJNP-UHFFFAOYSA-N"},{"sFormulaMolec":"C15H13N3O5","sCommonName":["(S)-(+)-3,5-dinitro-N-(1-phenylethyl)benzamide","(S)-3,5-dinitro-N-(1-phenylethyl)benzamide","(S)-N-(1-phenethyl)-3,5-dinitrobenzamide","(S)-N-(1-phenylethyl)-3,5-dinitrobenzamide"],"tml_elements":["RegNum","sStandardInChI","sStandardInChIKey","sCommonName","sFormulaMolec","Sample"],"Sample":[{"nSampleNm":1,"eSource":"Commercial source","tml_elements":["nSampleNm","eSource","purity"],"purity":[{"nStep":1,"nPurityMassDigits":2,"tml_elements":["nStep","nPurityMass","nPurityMassDigits","eAnalMeth"],"eAnalMeth":["Stated by supplier"],"nPurityMass":98},{"ePurifMethod":["Liquid chromatography"],"nStep":2,"tml_elements":["nStep","ePurifMethod"]},{"nPurityMass":99.93,"eAnalMeth":["HPLC"],"tml_elements":["nStep","nPurityMass","nPurityMassDigits","eAnalMeth"],"nPurityMassDigits":4,"nStep":3}]}],"RegNum":{"nOrgNum":4,"tml_elements":["nOrgNum"]},"sStandardInChI":"InChI=1S/C15H13N3O5/c1-10(11-5-3-2-4-6-11)16-15(19)12-7-13(17(20)21)9-14(8-12)18(22)23/h2-10H,1H3,(H,16,19)/t10-/m0/s1","sStandardInChIKey":"ABEVDCGKLRIYRW-JTQLQIEISA-N"},{"sStandardInChIKey":"ABEVDCGKLRIYRW-SNVBAGLBSA-N","sStandardInChI":"InChI=1S/C15H13N3O5/c1-10(11-5-3-2-4-6-11)16-15(19)12-7-13(17(20)21)9-14(8-12)18(22)23/h2-10H,1H3,(H,16,19)/t10-/m1/s1","RegNum":{"tml_elements":["nOrgNum"],"nOrgNum":5},"Sample":[{"purity":[{"nStep":1,"tml_elements":["nStep","nPurityMass","nPurityMassDigits","eAnalMeth"],"nPurityMassDigits":2,"eAnalMeth":["Stated by supplier"],"nPurityMass":99},{"nStep":2,"tml_elements":["nStep","ePurifMethod"],"ePurifMethod":["Liquid chromatography"]},{"nPurityMass":99.93,"eAnalMeth":["HPLC"],"nPurityMassDigits":4,"tml_elements":["nStep","nPurityMass","nPurityMassDigits","eAnalMeth"],"nStep":3}],"tml_elements":["nSampleNm","eSource","purity"],"nSampleNm":1,"eSource":"Commercial source"}],"tml_elements":["RegNum","sStandardInChI","sStandardInChIKey","sCommonName","sFormulaMolec","Sample"],"sCommonName":["(R)-(-)-3,5-dinitro-N-(1-phenylethyl)benzamide","(R)-3,5-dinitro-N-(1-phenylethyl)benzamide","(R)-N-(1-phenethyl)-3,5-dinitrobenzamide","(R)-N-(1-phenylethyl)-3,5-dinitrobenzamide"],"sFormulaMolec":"C15H13N3O5"},{"sStandardInChI":"InChI=1S/O2/c1-2","RegNum":{"tml_elements":["nOrgNum"],"nOrgNum":6},"sStandardInChIKey":"MYMOFIZGZYHOMD-UHFFFAOYSA-N","sFormulaMolec":"O2","sCommonName":["oxygen"],"Sample":[{"eSource":"Commercial source","nSampleNm":1,"tml_elements":["nSampleNm","eSource","purity"],"purity":[{"eAnalMeth":["Stated by supplier"],"nPurityMass":99.999,"nStep":1,"tml_elements":["nStep","nPurityMass","nPurityMassDigits","eAnalMeth"],"nPurityMassDigits":5}]}],"tml_elements":["RegNum","sStandardInChI","sStandardInChIKey","sCommonName","sFormulaMolec","Sample"]}],"tml_elements":["Version","Citation","Compound","PureOrMixtureData","ReactionData"],"ReactionData":[{"Property":[{"Property-MethodID":{"PropertyGroup":{"ReactionStateChangeProp":{"ePropName":"Specific internal energy of reaction at constant volume, J/g","eMethodName":"Micro-bomb calorimetry","tml_elements":["ePropName","eMethodName"]},"tml_elements":["ReactionStateChangeProp"]},"tml_elements":["PropertyGroup"]},"nTemperatureDigits":5,"CombinedUncertainty":{"sCombUncertEvaluator":"Data file compiler","nCombUncertAssessNum":1,"nCombUncertLevOfConfid":95,"eCombUncertEvalMethod":"Propagation of evaluated standard uncertainties","tml_elements":["nCombUncertAssessNum","sCombUncertEvaluator","eCombUncertEvalMethod","nCombUncertLevOfConfid"]},"nTemperature-K":"298.15","nPressure-kPa":"100","nPressureDigits":1,"nPropNumber":1,"tml_elements":["nPropNumber","Property-MethodID","nTemperature-K","nTemperatureDigits","nPressure-kPa","nPressureDigits","CombinedUncertainty"]}],"eExpPurpose":"Principal objective of the work","dateDateAdded":"11/19/2013","sCompiler":"AB","NumValues":[{"tml_elements":["PropertyValue"],"PropertyValue":[{"CombinedUncertainty":{"nCombUncertAssessNum":1,"tml_elements":["nCombUncertAssessNum","nCombExpandUncertValue"],"nCombExpandUncertValue":14.3},"nPropValue":-24535.8,"nPropDigits":6,"nPropNumber":1,"tml_elements":["nPropNumber","nPropValue","nPropDigits","CombinedUncertainty"]}],"VariableValue":[]}],"tml_elements":["nReactionDataNumber","Participant","eExpPurpose","sCompiler","sContributor","dateDateAdded","eReactionType","Property","NumValues"],"Participant":[{"nSampleNm":1,"nStoichiometricCoef":"-1","RegNum":{"nOrgNum":4,"tml_elements":["nOrgNum"]},"ePhase":"Crystal","tml_elements":["RegNum","nSampleNm","nStoichiometricCoef","ePhase"]},{"RegNum":{"tml_elements":["nOrgNum"],"nOrgNum":1},"nStoichiometricCoef":"15","tml_elements":["RegNum","nStoichiometricCoef","ePhase"],"ePhase":"Ideal gas"},{"tml_elements":["RegNum","nStoichiometricCoef","ePhase"],"ePhase":"Ideal gas","RegNum":{"tml_elements":["nOrgNum"],"nOrgNum":2},"nStoichiometricCoef":"1.5"},{"RegNum":{"tml_elements":["nOrgNum"],"nOrgNum":3},"nStoichiometricCoef":"6.5","tml_elements":["RegNum","nStoichiometricCoef","ePhase"],"ePhase":"Liquid"},{"tml_elements":["RegNum","nSampleNm","nStoichiometricCoef","ePhase"],"ePhase":"Ideal gas","nStoichiometricCoef":"-15.75","nSampleNm":1,"RegNum":{"tml_elements":["nOrgNum"],"nOrgNum":6}}],"eReactionType":"Combustion with oxygen","nReactionDataNumber":1,"sContributor":"TRC"},{"eExpPurpose":"Principal objective of the work","Property":[{"nTemperature-K":"298.15","CombinedUncertainty":{"nCombUncertAssessNum":1,"sCombUncertEvaluator":"Data file compiler","tml_elements":["nCombUncertAssessNum","sCombUncertEvaluator","eCombUncertEvalMethod","nCombUncertLevOfConfid"],"nCombUncertLevOfConfid":95,"eCombUncertEvalMethod":"Propagation of evaluated standard uncertainties"},"nPressureDigits":1,"nPressure-kPa":"100","nPropNumber":1,"Property-MethodID":{"PropertyGroup":{"ReactionStateChangeProp":{"ePropName":"Specific internal energy of reaction at constant volume, J/g","eMethodName":"Micro-bomb calorimetry","tml_elements":["ePropName","eMethodName"]},"tml_elements":["ReactionStateChangeProp"]},"tml_elements":["PropertyGroup"]},"tml_elements":["nPropNumber","Property-MethodID","nTemperature-K","nTemperatureDigits","nPressure-kPa","nPressureDigits","CombinedUncertainty"],"nTemperatureDigits":5}],"dateDateAdded":"11/19/2013","sCompiler":"AB","NumValues":[{"VariableValue":[],"PropertyValue":[{"CombinedUncertainty":{"nCombUncertAssessNum":1,"tml_elements":["nCombUncertAssessNum","nCombExpandUncertValue"],"nCombExpandUncertValue":14.3},"nPropValue":-24541.2,"nPropNumber":1,"nPropDigits":6,"tml_elements":["nPropNumber","nPropValue","nPropDigits","CombinedUncertainty"]}],"tml_elements":["PropertyValue"]}],"tml_elements":["nReactionDataNumber","Participant","eExpPurpose","sCompiler","sContributor","dateDateAdded","eReactionType","Property","NumValues"],"Participant":[{"nStoichiometricCoef":"-1","nSampleNm":1,"RegNum":{"nOrgNum":5,"tml_elements":["nOrgNum"]},"tml_elements":["RegNum","nSampleNm","nStoichiometricCoef","ePhase"],"ePhase":"Crystal"},{"tml_elements":["RegNum","nStoichiometricCoef","ePhase"],"ePhase":"Ideal gas","RegNum":{"tml_elements":["nOrgNum"],"nOrgNum":1},"nStoichiometricCoef":"15"},{"ePhase":"Ideal gas","tml_elements":["RegNum","nStoichiometricCoef","ePhase"],"nStoichiometricCoef":"1.5","RegNum":{"tml_elements":["nOrgNum"],"nOrgNum":2}},{"tml_elements":["RegNum","nStoichiometricCoef","ePhase"],"ePhase":"Liquid","nStoichiometricCoef":"6.5","RegNum":{"nOrgNum":3,"tml_elements":["nOrgNum"]}},{"ePhase":"Ideal gas","tml_elements":["RegNum","nSampleNm","nStoichiometricCoef","ePhase"],"RegNum":{"nOrgNum":6,"tml_elements":["nOrgNum"]},"nSampleNm":1,"nStoichiometricCoef":"-15.75"}],"eReactionType":"Combustion with oxygen","nReactionDataNumber":2,"sContributor":"TRC"}],"PureOrMixtureData":[{"Variable":[{"VarPhaseID":{"eVarPhase":"Crystal","tml_elements":["eVarPhase"]},"nVarNumber":1,"tml_elements":["nVarNumber","VariableID","VarPhaseID"],"VariableID":{"VariableType":{"tml_elements":["eTemperature"],"eTemperature":"Temperature, K"},"tml_elements":["VariableType"]}},{"VariableID":{"tml_elements":["VariableType"],"VariableType":{"ePressure":"Pressure, kPa","tml_elements":["ePressure"]}},"VarPhaseID":{"eVarPhase":"Crystal","tml_elements":["eVarPhase"]},"nVarNumber":2,"tml_elements":["nVarNumber","VariableID","VarPhaseID"]}],"Component":[{"nSampleNm":1,"RegNum":{"tml_elements":["nOrgNum"],"nOrgNum":4},"tml_elements":["RegNum","nSampleNm"]}],"dateDateAdded":"11/22/2013","nPureOrMixtureDataNumber":1,"sCompiler":"AB","NumValues":[{"VariableValue":[{"tml_elements":["nVarNumber","nVarValue","nVarDigits"],"nVarDigits":5,"nVarNumber":1,"nVarValue":298.15},{"nVarDigits":6,"tml_elements":["nVarNumber","nVarValue","nVarDigits"],"nVarNumber":2,"nVarValue":101.325}],"PropertyValue":[{"CombinedUncertainty":{"tml_elements":["nCombUncertAssessNum","nCombExpandUncertValue"],"nCombExpandUncertValue":290,"nCombUncertAssessNum":1},"nPropValue":1430,"tml_elements":["nPropNumber","nPropValue","nPropDigits","CombinedUncertainty"],"nPropDigits":3,"nPropNumber":1}],"tml_elements":["VariableValue","PropertyValue"]}],"eExpPurpose":"Principal objective of the work","Property":[{"Property-MethodID":{"tml_elements":["PropertyGroup"],"PropertyGroup":{"VolumetricProp":{"tml_elements":["ePropName","sMethodName"],"sMethodName":"OTHER: mass to volumesMethod:from the ratio mass/volume of a pelletFP","ePropName":"Mass density, kg/m3"},"tml_elements":["VolumetricProp"]}},"CombinedUncertainty":{"nCombUncertAssessNum":1,"sCombUncertEvaluator":"Data file compiler","tml_elements":["nCombUncertAssessNum","sCombUncertEvaluator","eCombUncertEvalMethod","nCombUncertLevOfConfid"],"eCombUncertEvalMethod":"Propagation of evaluated standard uncertainties","nCombUncertLevOfConfid":95},"tml_elements":["nPropNumber","Property-MethodID","PropPhaseID","ePresentation","CombinedUncertainty"],"ePresentation":"Direct value, X","nPropNumber":1,"PropPhaseID":{"tml_elements":["ePropPhase"],"ePropPhase":"Crystal"}}],"sContributor":"TRC","tml_elements":["nPureOrMixtureDataNumber","Component","eExpPurpose","sCompiler","sContributor","dateDateAdded","Property","PhaseID","Variable","NumValues"],"PhaseID":[{"ePhase":"Crystal","tml_elements":["ePhase"]}]},{"Component":[{"tml_elements":["RegNum","nSampleNm"],"nSampleNm":1,"RegNum":{"nOrgNum":5,"tml_elements":["nOrgNum"]}}],"Variable":[{"VariableID":{"tml_elements":["VariableType"],"VariableType":{"eTemperature":"Temperature, K","tml_elements":["eTemperature"]}},"VarPhaseID":{"tml_elements":["eVarPhase"],"eVarPhase":"Crystal"},"nVarNumber":1,"tml_elements":["nVarNumber","VariableID","VarPhaseID"]},{"VarPhaseID":{"tml_elements":["eVarPhase"],"eVarPhase":"Crystal"},"nVarNumber":2,"tml_elements":["nVarNumber","VariableID","VarPhaseID"],"VariableID":{"VariableType":{"tml_elements":["ePressure"],"ePressure":"Pressure, kPa"},"tml_elements":["VariableType"]}}],"Property":[{"Property-MethodID":{"tml_elements":["PropertyGroup"],"PropertyGroup":{"tml_elements":["VolumetricProp"],"VolumetricProp":{"sMethodName":"OTHER: mass to volumesMethod","ePropName":"Mass density, kg/m3","tml_elements":["ePropName","sMethodName"]}}},"PropPhaseID":{"ePropPhase":"Crystal","tml_elements":["ePropPhase"]},"nPropNumber":1,"ePresentation":"Direct value, X","tml_elements":["nPropNumber","Property-MethodID","PropPhaseID","ePresentation","CombinedUncertainty"],"CombinedUncertainty":{"tml_elements":["nCombUncertAssessNum","sCombUncertEvaluator","eCombUncertEvalMethod","nCombUncertLevOfConfid"],"eCombUncertEvalMethod":"Propagation of evaluated standard uncertainties","nCombUncertLevOfConfid":95,"nCombUncertAssessNum":1,"sCombUncertEvaluator":"Data file compiler"}}],"eExpPurpose":"Principal objective of the work","sCompiler":"AB","nPureOrMixtureDataNumber":2,"dateDateAdded":"11/22/2013","NumValues":[{"VariableValue":[{"nVarNumber":1,"nVarDigits":5,"tml_elements":["nVarNumber","nVarValue","nVarDigits"],"nVarValue":298.15},{"nVarNumber":2,"tml_elements":["nVarNumber","nVarValue","nVarDigits"],"nVarDigits":6,"nVarValue":101.325}],"tml_elements":["VariableValue","PropertyValue"],"PropertyValue":[{"tml_elements":["nPropNumber","nPropValue","nPropDigits","CombinedUncertainty"],"nPropDigits":3,"nPropNumber":1,"nPropValue":1410,"CombinedUncertainty":{"nCombUncertAssessNum":1,"tml_elements":["nCombUncertAssessNum","nCombExpandUncertValue"],"nCombExpandUncertValue":280}}]}],"PhaseID":[{"ePhase":"Crystal","tml_elements":["ePhase"]}],"tml_elements":["nPureOrMixtureDataNumber","Component","eExpPurpose","sCompiler","sContributor","dateDateAdded","Property","PhaseID","Variable","NumValues"],"sContributor":"TRC"}],"Citation":{"sAuthor":["Mentado, J.[Juan]"],"sKeyword":["Energy of combustion of enantiomers","Combustion enthalpy","Formation enthalpy","(S)-(+)-3,5-Dinitro-N-(1-phenylethyl)benzamide","(R)-(-)-3,5-Dinitro-N-(1-phenylethyl)benzamide"],"tml_elements":["TRCRefID","eType","eSourceType","sAuthor","sPubName","yrPubYr","dateCit","sTitle","sAbstract","sKeyword","sDOI","sVol","sPage"],"sDOI":"10.1016/j.jct.2013.05.010","sTitle":"Standard molar enthalpy of combustion and formation of enantiomers: (S)-(+)-3,5-Dinitro-N-(1-phenylethyl)benzamide and (R)-(-)-3,5-Dinitro-N-(1-phenylethyl)benzamide","sAbstract":"Values of the standard (p  = 0.1 MPa) massic energy of combustion in oxygen, at T = 298.15 K, for (S)-(+)- 3,5-Dinitro-N-(1-phenylethyl)benzamide (S+DPB) and (R)-(-)-3,5-Dinitro-N-(1-phenylethyl)benzamide (R-DPB) were measured by using an isoperibolic micro-combustion calorimeter. The calorimeter was calibrated and tested recently in our laboratory. The massic energies of enantiomers were used to derive the standard molar enthalpy of formation in condensate phase, of S+DPB, (-26.86 +- 2.89) kJ/ mol and R-DPB (-25.15 +- 2.90) kJ/ mol. Polyethene bags were used as an auxiliary material in the combustion experiments.","TRCRefID":{"tml_elements":["yrYrPub","sAuthor1","sAuthor2","nAuthorn"],"nAuthorn":"0","sAuthor1":"men","sAuthor2":"","yrYrPub":"2013"},"eSourceType":"Original","sVol":"64","eType":"journal","sPage":"134-136","sPubName":"J. Chem. Thermodyn.","yrPubYr":"2013","dateCit":"2020-09-29"},"Version":{"tml_elements":["nVersionMajor","nVersionMinor"],"nVersionMinor":0,"nVersionMajor":2}}