{"tml_elements":["Version","Citation","Compound","ReactionData"],"ReactionData":[{"sContributor":"TRC","nReactionDataNumber":1,"Participant":[{"ePhase":"Crystal","tml_elements":["RegNum","nSampleNm","nStoichiometricCoef","ePhase"],"RegNum":{"tml_elements":["nOrgNum"],"nOrgNum":5},"nSampleNm":1,"nStoichiometricCoef":"-1"},{"ePhase":"Ideal gas","tml_elements":["RegNum","nStoichiometricCoef","ePhase"],"nStoichiometricCoef":"9","RegNum":{"tml_elements":["nOrgNum"],"nOrgNum":1}},{"nStoichiometricCoef":"1","RegNum":{"nOrgNum":2,"tml_elements":["nOrgNum"]},"tml_elements":["RegNum","nStoichiometricCoef","ePhase"],"ePhase":"Ideal gas"},{"ePhase":"Liquid","tml_elements":["RegNum","nStoichiometricCoef","ePhase"],"nStoichiometricCoef":"6","RegNum":{"nOrgNum":3,"tml_elements":["nOrgNum"]}},{"nStoichiometricCoef":"-9","RegNum":{"nOrgNum":4,"tml_elements":["nOrgNum"]},"ePhase":"Ideal gas","tml_elements":["RegNum","nStoichiometricCoef","ePhase"]}],"tml_elements":["nReactionDataNumber","Participant","eExpPurpose","sCompiler","sContributor","dateDateAdded","eReactionType","Property","NumValues"],"eReactionType":"Combustion with oxygen","NumValues":[{"VariableValue":[],"PropertyValue":[{"nPropValue":-16786.53,"CombinedUncertainty":{"nCombUncertAssessNum":1,"nCombExpandUncertValue":5.43,"tml_elements":["nCombUncertAssessNum","nCombExpandUncertValue"]},"tml_elements":["nPropNumber","nPropValue","nPropDigits","CombinedUncertainty"],"nPropDigits":7,"nPropNumber":1}],"tml_elements":["PropertyValue"]}],"dateDateAdded":"3/25/2019","sCompiler":"AB","Property":[{"CombinedUncertainty":{"nCombUncertLevOfConfid":95,"eCombUncertEvalMethod":"Propagation of evaluated standard uncertainties","tml_elements":["nCombUncertAssessNum","sCombUncertEvaluator","eCombUncertEvalMethod","nCombUncertLevOfConfid"],"sCombUncertEvaluator":"Data file compiler","nCombUncertAssessNum":1},"nTemperature-K":"298.15","nPressureDigits":1,"nPressure-kPa":"100","Property-MethodID":{"PropertyGroup":{"tml_elements":["ReactionStateChangeProp"],"ReactionStateChangeProp":{"tml_elements":["ePropName","eMethodName"],"ePropName":"Specific internal energy of reaction at constant volume, J/g","eMethodName":"Static bomb calorimetry"}},"tml_elements":["PropertyGroup"]},"nTemperatureDigits":5,"nPropNumber":1,"tml_elements":["nPropNumber","Property-MethodID","nTemperature-K","nTemperatureDigits","nPressure-kPa","nPressureDigits","CombinedUncertainty"]}],"eExpPurpose":"Principal objective of the work"}],"THERMOML_MD5_CHECKSUM":"83eb35655814eeedfadb5eed88eebb32","Citation":{"dateCit":"2020-09-29","yrPubYr":"2018","sPubName":"J. Chem. Thermodyn.","sPage":"90-97","eType":"journal","sVol":"124","eSourceType":"Original","sTitle":"Energetic characterization of a bioactive compound: Uridine","sDOI":"10.1016/j.jct.2018.04.013","TRCRefID":{"nAuthorn":"0","tml_elements":["yrYrPub","sAuthor1","sAuthor2","nAuthorn"],"sAuthor1":"szt","sAuthor2":"ama","yrYrPub":"2018"},"sAbstract":"The standard (po=0.1MPa) molar enthalpy of formation of crystalline uridine, (C9H12N2O6), was determined from its specific energy of combustion, measured by static bomb combustion calorimetry, in oxygen, at T=298.15K, as -(1159.8+-1.8)kJmol-1. Gas-phase standard molar enthalpy of formation of uridine was determined as -(992.8+-3.2)kJmol-1 from quantum-chemical calculations using the G3(MP2) method. The enthalpy of sublimation of uridine at T=298.15K, determined as the difference between standard molar enthalpies of formation of uridine in crystalline and gaseous states, was found to be (167.0+-3.7)kJmol-1.","sAuthor":["Szterner, Piotr","Amaral, Luisa M.P.F.","Morais, Victor M.F.","Ribeiro da Silva, Maria D.M.C.","Ribeiro da Silva, Manuel A.V."],"sKeyword":["Uridine","Combustion calorimetry","Enthalpy of formation","G3(MP2) method"],"tml_elements":["TRCRefID","eType","eSourceType","sAuthor","sPubName","yrPubYr","dateCit","sTitle","sAbstract","sKeyword","sDOI","sVol","sPage"]},"Compound":[{"sCommonName":["carbon dioxide"],"tml_elements":["RegNum","sStandardInChI","sStandardInChIKey","sCommonName","sFormulaMolec"],"sStandardInChIKey":"CURLTUGMZLYLDI-UHFFFAOYSA-N","sFormulaMolec":"CO2","sStandardInChI":"InChI=1S/CO2/c2-1-3","RegNum":{"nOrgNum":1,"tml_elements":["nOrgNum"]}},{"sStandardInChI":"InChI=1S/N2/c1-2","RegNum":{"tml_elements":["nOrgNum"],"nOrgNum":2},"sStandardInChIKey":"IJGRMHOSHXDMSA-UHFFFAOYSA-N","sFormulaMolec":"N2","sCommonName":["nitrogen"],"tml_elements":["RegNum","sStandardInChI","sStandardInChIKey","sCommonName","sFormulaMolec"]},{"sStandardInChIKey":"XLYOFNOQVPJJNP-UHFFFAOYSA-N","sStandardInChI":"InChI=1S/H2O/h1H2","RegNum":{"nOrgNum":3,"tml_elements":["nOrgNum"]},"tml_elements":["RegNum","sStandardInChI","sStandardInChIKey","sCommonName","sFormulaMolec"],"sCommonName":["water"],"sFormulaMolec":"H2O"},{"sCommonName":["oxygen"],"tml_elements":["RegNum","sStandardInChI","sStandardInChIKey","sCommonName","sFormulaMolec"],"sFormulaMolec":"O2","sStandardInChI":"InChI=1S/O2/c1-2","RegNum":{"nOrgNum":4,"tml_elements":["nOrgNum"]},"sStandardInChIKey":"MYMOFIZGZYHOMD-UHFFFAOYSA-N"},{"sFormulaMolec":"C9H12N2O6","Sample":[{"purity":[{"nStep":1,"tml_elements":["nStep","nPurityMass","nPurityMassDigits","eAnalMeth"],"nPurityMassDigits":2,"nPurityMass":99,"eAnalMeth":["Stated by supplier"]},{"nPurityMassDigits":4,"tml_elements":["nStep","nPurityMass","nPurityMassDigits","eAnalMeth"],"nStep":2,"nPurityMass":99.97,"eAnalMeth":["CO2 yield in combustion products"]}],"tml_elements":["nSampleNm","eSource","purity"],"eSource":"Commercial source","nSampleNm":1}],"sCommonName":["uridine","1-((2R,3R,4S,5R)-3,4-dihydroxy-5-(hydroxymethyl)tetrahydrofuran-2-yl)pyrimidine-2,4(1H,3H)-dione","1-.beta.-D-ribofuranosyl-2,4(1H,3H)-pyrimidinedione"],"tml_elements":["RegNum","sStandardInChI","sStandardInChIKey","sCommonName","sFormulaMolec","Sample"],"sStandardInChI":"InChI=1S/C9H12N2O6/c12-3-4-6(14)7(15)8(17-4)11-2-1-5(13)10-9(11)16/h1-2,4,6-8,12,14-15H,3H2,(H,10,13,16)/t4-,6?,7?,8-/m1/s1","RegNum":{"tml_elements":["nOrgNum"],"nOrgNum":5},"sStandardInChIKey":"DRTQHJPVMGBUCF-AYZDMWBASA-N"}],"Version":{"tml_elements":["nVersionMajor","nVersionMinor"],"nVersionMinor":0,"nVersionMajor":2}}