{"tml_elements":["Version","Citation","Compound","PureOrMixtureData"],"PureOrMixtureData":[{"Component":[{"tml_elements":["RegNum","nSampleNm"],"nSampleNm":1,"RegNum":{"tml_elements":["nOrgNum"],"nOrgNum":1}}],"PhaseID":[{"tml_elements":["ePhase"],"ePhase":"Crystal"},{"tml_elements":["ePhase"],"ePhase":"Liquid"},{"tml_elements":["ePhase"],"ePhase":"Air at 1 atmosphere"}],"tml_elements":["nPureOrMixtureDataNumber","Component","eExpPurpose","sCompiler","sContributor","dateDateAdded","Property","PhaseID","NumValues"],"sContributor":"TRC","Property":[{"PropPhaseID":{"tml_elements":["ePropPhase"],"ePropPhase":"Crystal"},"nPropNumber":1,"ePresentation":"Direct value, X","tml_elements":["nPropNumber","Property-MethodID","PropPhaseID","ePresentation","CombinedUncertainty"],"CombinedUncertainty":{"nCombUncertAssessNum":1,"sCombUncertEvaluator":"Data file compiler","tml_elements":["nCombUncertAssessNum","sCombUncertEvaluator","eCombUncertEvalMethod","nCombUncertLevOfConfid"],"nCombUncertLevOfConfid":95,"eCombUncertEvalMethod":"Propagation of evaluated standard uncertainties"},"Property-MethodID":{"tml_elements":["PropertyGroup"],"PropertyGroup":{"PhaseTransition":{"sMethodName":"DTA","ePropName":"Normal melting temperature, K","tml_elements":["ePropName","sMethodName"]},"tml_elements":["PhaseTransition"]}}}],"eExpPurpose":"Principal objective of the work","NumValues":[{"VariableValue":[],"PropertyValue":[{"CombinedUncertainty":{"tml_elements":["nCombUncertAssessNum","nCombExpandUncertValue"],"nCombExpandUncertValue":2,"nCombUncertAssessNum":1},"nPropValue":377,"tml_elements":["nPropNumber","nPropValue","nPropDigits","CombinedUncertainty"],"nPropDigits":3,"nPropNumber":1}],"tml_elements":["PropertyValue"]}],"sCompiler":"AB","dateDateAdded":"6/12/2014","nPureOrMixtureDataNumber":1},{"dateDateAdded":"6/11/2014","nPureOrMixtureDataNumber":2,"sCompiler":"AB","NumValues":[{"VariableValue":[{"nVarValue":332.2,"nVarDigits":4,"tml_elements":["nVarNumber","nVarValue","nVarDigits"],"nVarNumber":1}],"tml_elements":["VariableValue","PropertyValue"],"PropertyValue":[{"tml_elements":["nPropNumber","nPropValue","nPropDigits","CombinedUncertainty"],"nPropNumber":1,"nPropDigits":3,"CombinedUncertainty":{"nCombExpandUncertValue":0.5,"tml_elements":["nCombUncertAssessNum","nCombExpandUncertValue"],"nCombUncertAssessNum":1},"nPropValue":87.5}]}],"Property":[{"ePresentation":"Direct value, X","tml_elements":["nPropNumber","Property-MethodID","PropPhaseID","ePresentation","CombinedUncertainty"],"PropPhaseID":{"tml_elements":["ePropPhase"],"ePropPhase":"Crystal"},"nPropNumber":1,"CombinedUncertainty":{"tml_elements":["nCombUncertAssessNum","sCombUncertEvaluator","eCombUncertEvalMethod","nCombUncertLevOfConfid"],"nCombUncertLevOfConfid":95,"eCombUncertEvalMethod":"Propagation of evaluated standard uncertainties","nCombUncertAssessNum":1,"sCombUncertEvaluator":"Data file compiler"},"Property-MethodID":{"tml_elements":["PropertyGroup"],"PropertyGroup":{"PhaseTransition":{"ePropName":"Molar enthalpy of vaporization or sublimation, kJ/mol","eMethodName":"Static calorimetry","tml_elements":["ePropName","eMethodName"]},"tml_elements":["PhaseTransition"]}}}],"eExpPurpose":"Principal objective of the work","sContributor":"TRC","Variable":[{"tml_elements":["nVarNumber","VariableID","VarPhaseID"],"nVarNumber":1,"VarPhaseID":{"eVarPhase":"Crystal","tml_elements":["eVarPhase"]},"VariableID":{"tml_elements":["VariableType"],"VariableType":{"eTemperature":"Temperature, K","tml_elements":["eTemperature"]}}}],"tml_elements":["nPureOrMixtureDataNumber","Component","eExpPurpose","sCompiler","sContributor","dateDateAdded","Property","PhaseID","Variable","NumValues"],"PhaseID":[{"tml_elements":["ePhase"],"ePhase":"Crystal"},{"tml_elements":["ePhase"],"ePhase":"Gas"}],"Component":[{"tml_elements":["RegNum","nSampleNm"],"nSampleNm":1,"RegNum":{"tml_elements":["nOrgNum"],"nOrgNum":1}}]},{"Property":[{"Property-MethodID":{"PropertyGroup":{"PhaseTransition":{"sMethodName":"DTA","ePropName":"Normal melting temperature, K","tml_elements":["ePropName","sMethodName"]},"tml_elements":["PhaseTransition"]},"tml_elements":["PropertyGroup"]},"CombinedUncertainty":{"sCombUncertEvaluator":"Data file compiler","nCombUncertAssessNum":1,"eCombUncertEvalMethod":"Propagation of evaluated standard uncertainties","nCombUncertLevOfConfid":95,"tml_elements":["nCombUncertAssessNum","sCombUncertEvaluator","eCombUncertEvalMethod","nCombUncertLevOfConfid"]},"tml_elements":["nPropNumber","Property-MethodID","PropPhaseID","ePresentation","CombinedUncertainty"],"ePresentation":"Direct value, X","nPropNumber":1,"PropPhaseID":{"tml_elements":["ePropPhase"],"ePropPhase":"Crystal 1"}}],"eExpPurpose":"Principal objective of the work","nPureOrMixtureDataNumber":3,"dateDateAdded":"6/12/2014","sCompiler":"AB","NumValues":[{"VariableValue":[],"tml_elements":["PropertyValue"],"PropertyValue":[{"tml_elements":["nPropNumber","nPropValue","nPropDigits","CombinedUncertainty"],"nPropNumber":1,"nPropDigits":3,"CombinedUncertainty":{"nCombExpandUncertValue":2,"tml_elements":["nCombUncertAssessNum","nCombExpandUncertValue"],"nCombUncertAssessNum":1},"nPropValue":382}]}],"tml_elements":["nPureOrMixtureDataNumber","Component","eExpPurpose","sCompiler","sContributor","dateDateAdded","Property","PhaseID","NumValues"],"PhaseID":[{"ePhase":"Crystal 1","tml_elements":["ePhase"]},{"ePhase":"Liquid","tml_elements":["ePhase"]},{"tml_elements":["ePhase"],"ePhase":"Air at 1 atmosphere"}],"Component":[{"tml_elements":["RegNum","nSampleNm"],"RegNum":{"tml_elements":["nOrgNum"],"nOrgNum":2},"nSampleNm":1}],"sContributor":"TRC"},{"eExpPurpose":"Principal objective of the work","Property":[{"Property-MethodID":{"PropertyGroup":{"PhaseTransition":{"tml_elements":["ePropName","sMethodName"],"sMethodName":"DTA","ePropName":"Triple point temperature, K"},"tml_elements":["PhaseTransition"]},"tml_elements":["PropertyGroup"]},"PropPhaseID":{"ePropPhase":"Crystal 2","tml_elements":["ePropPhase"]},"nPropNumber":1,"ePresentation":"Direct value, X","tml_elements":["nPropNumber","Property-MethodID","PropPhaseID","ePresentation","CombinedUncertainty"],"CombinedUncertainty":{"tml_elements":["nCombUncertAssessNum","sCombUncertEvaluator","eCombUncertEvalMethod","nCombUncertLevOfConfid"],"eCombUncertEvalMethod":"Propagation of evaluated standard uncertainties","nCombUncertLevOfConfid":95,"nCombUncertAssessNum":1,"sCombUncertEvaluator":"Data file compiler"}}],"NumValues":[{"VariableValue":[],"tml_elements":["PropertyValue"],"PropertyValue":[{"nPropNumber":1,"nPropDigits":3,"tml_elements":["nPropNumber","nPropValue","nPropDigits","CombinedUncertainty"],"nPropValue":364,"CombinedUncertainty":{"tml_elements":["nCombUncertAssessNum","nCombExpandUncertValue"],"nCombExpandUncertValue":13,"nCombUncertAssessNum":1}}]}],"sCompiler":"AB","dateDateAdded":"6/12/2014","nPureOrMixtureDataNumber":4,"Component":[{"tml_elements":["RegNum","nSampleNm"],"RegNum":{"tml_elements":["nOrgNum"],"nOrgNum":2},"nSampleNm":1}],"PhaseID":[{"tml_elements":["ePhase"],"ePhase":"Crystal 2"},{"tml_elements":["ePhase"],"ePhase":"Crystal 1"},{"ePhase":"Air at 1 atmosphere","tml_elements":["ePhase"]}],"tml_elements":["nPureOrMixtureDataNumber","Component","eExpPurpose","sCompiler","sContributor","dateDateAdded","Property","PhaseID","NumValues"],"sContributor":"TRC"},{"eExpPurpose":"Principal objective of the work","Property":[{"PropPhaseID":{"ePropPhase":"Crystal 2","tml_elements":["ePropPhase"]},"Property-MethodID":{"PropertyGroup":{"PhaseTransition":{"tml_elements":["ePropName","sMethodName"],"ePropName":"Molar enthalpy of transition or fusion, kJ/mol","sMethodName":"DSC"},"tml_elements":["PhaseTransition"]},"tml_elements":["PropertyGroup"]},"nPropNumber":1,"ePresentation":"Direct value, X","tml_elements":["nPropNumber","Property-MethodID","PropPhaseID","ePresentation","CombinedUncertainty"],"CombinedUncertainty":{"tml_elements":["nCombUncertAssessNum","sCombUncertEvaluator","eCombUncertEvalMethod","nCombUncertLevOfConfid"],"eCombUncertEvalMethod":"Propagation of evaluated standard uncertainties","nCombUncertLevOfConfid":95,"nCombUncertAssessNum":1,"sCombUncertEvaluator":"Data file compiler"}}],"NumValues":[{"tml_elements":["PropertyValue"],"PropertyValue":[{"nPropValue":1.3,"CombinedUncertainty":{"tml_elements":["nCombUncertAssessNum","nCombExpandUncertValue"],"nCombExpandUncertValue":0.4,"nCombUncertAssessNum":1},"tml_elements":["nPropNumber","nPropValue","nPropDigits","CombinedUncertainty"],"nPropDigits":2,"nPropNumber":1}],"VariableValue":[]}],"dateDateAdded":"6/12/2014","nPureOrMixtureDataNumber":5,"sCompiler":"AB","Component":[{"nSampleNm":1,"RegNum":{"nOrgNum":2,"tml_elements":["nOrgNum"]},"tml_elements":["RegNum","nSampleNm"]}],"tml_elements":["nPureOrMixtureDataNumber","Component","eExpPurpose","sCompiler","sContributor","dateDateAdded","Property","PhaseID","NumValues"],"PhaseID":[{"ePhase":"Crystal 2","tml_elements":["ePhase"]},{"tml_elements":["ePhase"],"ePhase":"Crystal 1"},{"ePhase":"Air at 1 atmosphere","tml_elements":["ePhase"]}],"sContributor":"TRC"},{"eExpPurpose":"Principal objective of the work","Property":[{"Property-MethodID":{"PropertyGroup":{"tml_elements":["PhaseTransition"],"PhaseTransition":{"eMethodName":"Static calorimetry","ePropName":"Molar enthalpy of vaporization or sublimation, kJ/mol","tml_elements":["ePropName","eMethodName"]}},"tml_elements":["PropertyGroup"]},"CombinedUncertainty":{"nCombUncertLevOfConfid":95,"eCombUncertEvalMethod":"Propagation of evaluated standard uncertainties","tml_elements":["nCombUncertAssessNum","sCombUncertEvaluator","eCombUncertEvalMethod","nCombUncertLevOfConfid"],"sCombUncertEvaluator":"Data file compiler","nCombUncertAssessNum":1},"tml_elements":["nPropNumber","Property-MethodID","PropPhaseID","ePresentation","CombinedUncertainty"],"ePresentation":"Direct value, X","nPropNumber":1,"PropPhaseID":{"ePropPhase":"Crystal 2","tml_elements":["ePropPhase"]}}],"sCompiler":"AB","nPureOrMixtureDataNumber":6,"dateDateAdded":"6/12/2014","NumValues":[{"PropertyValue":[{"tml_elements":["nPropNumber","nPropValue","nPropDigits","CombinedUncertainty"],"nPropDigits":3,"nPropNumber":1,"nPropValue":99.3,"CombinedUncertainty":{"nCombUncertAssessNum":1,"tml_elements":["nCombUncertAssessNum","nCombExpandUncertValue"],"nCombExpandUncertValue":0.6}}],"tml_elements":["VariableValue","PropertyValue"],"VariableValue":[{"nVarValue":327.8,"tml_elements":["nVarNumber","nVarValue","nVarDigits"],"nVarDigits":4,"nVarNumber":1}]}],"PhaseID":[{"tml_elements":["ePhase"],"ePhase":"Crystal 2"},{"ePhase":"Gas","tml_elements":["ePhase"]}],"tml_elements":["nPureOrMixtureDataNumber","Component","eExpPurpose","sCompiler","sContributor","dateDateAdded","Property","PhaseID","Variable","NumValues"],"Component":[{"RegNum":{"tml_elements":["nOrgNum"],"nOrgNum":2},"nSampleNm":1,"tml_elements":["RegNum","nSampleNm"]}],"Variable":[{"nVarNumber":1,"VarPhaseID":{"tml_elements":["eVarPhase"],"eVarPhase":"Crystal 2"},"tml_elements":["nVarNumber","VariableID","VarPhaseID"],"VariableID":{"VariableType":{"tml_elements":["eTemperature"],"eTemperature":"Temperature, K"},"tml_elements":["VariableType"]}}],"sContributor":"TRC"},{"sContributor":"TRC","tml_elements":["nPureOrMixtureDataNumber","Component","eExpPurpose","sCompiler","sContributor","dateDateAdded","Property","PhaseID","NumValues"],"PhaseID":[{"ePhase":"Crystal","tml_elements":["ePhase"]},{"ePhase":"Liquid","tml_elements":["ePhase"]},{"tml_elements":["ePhase"],"ePhase":"Air at 1 atmosphere"}],"Component":[{"nSampleNm":1,"RegNum":{"nOrgNum":3,"tml_elements":["nOrgNum"]},"tml_elements":["RegNum","nSampleNm"]}],"nPureOrMixtureDataNumber":7,"dateDateAdded":"6/12/2014","sCompiler":"AB","NumValues":[{"PropertyValue":[{"nPropValue":445,"CombinedUncertainty":{"nCombUncertAssessNum":1,"nCombExpandUncertValue":2,"tml_elements":["nCombUncertAssessNum","nCombExpandUncertValue"]},"tml_elements":["nPropNumber","nPropValue","nPropDigits","CombinedUncertainty"],"nPropNumber":1,"nPropDigits":3}],"tml_elements":["PropertyValue"],"VariableValue":[]}],"eExpPurpose":"Principal objective of the work","Property":[{"ePresentation":"Direct value, X","tml_elements":["nPropNumber","Property-MethodID","PropPhaseID","ePresentation","CombinedUncertainty"],"PropPhaseID":{"tml_elements":["ePropPhase"],"ePropPhase":"Crystal"},"Property-MethodID":{"tml_elements":["PropertyGroup"],"PropertyGroup":{"tml_elements":["PhaseTransition"],"PhaseTransition":{"tml_elements":["ePropName","sMethodName"],"sMethodName":"DTA","ePropName":"Normal melting temperature, K"}}},"nPropNumber":1,"CombinedUncertainty":{"nCombUncertLevOfConfid":95,"eCombUncertEvalMethod":"Propagation of evaluated standard uncertainties","tml_elements":["nCombUncertAssessNum","sCombUncertEvaluator","eCombUncertEvalMethod","nCombUncertLevOfConfid"],"sCombUncertEvaluator":"Data file compiler","nCombUncertAssessNum":1}}]},{"PhaseID":[{"ePhase":"Crystal","tml_elements":["ePhase"]},{"tml_elements":["ePhase"],"ePhase":"Gas"}],"tml_elements":["nPureOrMixtureDataNumber","Component","eExpPurpose","sCompiler","sContributor","dateDateAdded","Property","PhaseID","Variable","NumValues"],"Component":[{"tml_elements":["RegNum","nSampleNm"],"RegNum":{"tml_elements":["nOrgNum"],"nOrgNum":3},"nSampleNm":1}],"Variable":[{"VariableID":{"VariableType":{"tml_elements":["eTemperature"],"eTemperature":"Temperature, K"},"tml_elements":["VariableType"]},"tml_elements":["nVarNumber","VariableID","VarPhaseID"],"VarPhaseID":{"eVarPhase":"Crystal","tml_elements":["eVarPhase"]},"nVarNumber":1}],"sContributor":"TRC","Property":[{"ePresentation":"Direct value, X","tml_elements":["nPropNumber","Property-MethodID","PropPhaseID","ePresentation","CombinedUncertainty"],"PropPhaseID":{"tml_elements":["ePropPhase"],"ePropPhase":"Crystal"},"nPropNumber":1,"Property-MethodID":{"PropertyGroup":{"PhaseTransition":{"eMethodName":"Static calorimetry","ePropName":"Molar enthalpy of vaporization or sublimation, kJ/mol","tml_elements":["ePropName","eMethodName"]},"tml_elements":["PhaseTransition"]},"tml_elements":["PropertyGroup"]},"CombinedUncertainty":{"tml_elements":["nCombUncertAssessNum","sCombUncertEvaluator","eCombUncertEvalMethod","nCombUncertLevOfConfid"],"eCombUncertEvalMethod":"Propagation of evaluated standard uncertainties","nCombUncertLevOfConfid":95,"nCombUncertAssessNum":1,"sCombUncertEvaluator":"Data file compiler"}}],"eExpPurpose":"Principal objective of the work","sCompiler":"AB","nPureOrMixtureDataNumber":8,"dateDateAdded":"6/11/2014","NumValues":[{"PropertyValue":[{"nPropNumber":1,"nPropDigits":4,"tml_elements":["nPropNumber","nPropValue","nPropDigits","CombinedUncertainty"],"nPropValue":101.6,"CombinedUncertainty":{"nCombUncertAssessNum":1,"tml_elements":["nCombUncertAssessNum","nCombExpandUncertValue"],"nCombExpandUncertValue":1}}],"tml_elements":["VariableValue","PropertyValue"],"VariableValue":[{"nVarValue":327.8,"nVarDigits":4,"tml_elements":["nVarNumber","nVarValue","nVarDigits"],"nVarNumber":1}]}]}],"THERMOML_MD5_CHECKSUM":"0802e3fc8ab56d44a7b59c6bddd842e4","Citation":{"eType":"journal","sVol":"73","sPage":"90-96","dateCit":"2020-09-29","sPubName":"J. Chem. Thermodyn.","yrPubYr":"2014","sAuthor":["Goncalves, E. M.[Elsa M.]","Agapito, F.[Filipe]","Almeida, T. S.[Tania S.]","Martinho Simoes, J. A.[Jose A.]"],"sKeyword":["Dihydroxybenzenes","Catechol","Resorcinol","Hydroquinone","Calvet microcalorimetry","Enthalpy of formation","Enthalpy of sublimation","Ab initio calculations","Explicitly correlated calculations"],"tml_elements":["TRCRefID","eType","eSourceType","sAuthor","sPubName","yrPubYr","dateCit","sTitle","sAbstract","sKeyword","sDOI","sVol","sPage"],"sTitle":"Enthalpies of formation of dihydroxybenzenes revisited: Combining experimental and high-level ab initio data","sDOI":"10.1016/j.jct.2013.10.032","TRCRefID":{"tml_elements":["yrYrPub","sAuthor1","sAuthor2","nAuthorn"],"nAuthorn":"0","sAuthor1":"gon","sAuthor2":"aga","yrYrPub":"2014"},"sAbstract":"Accurate values of standard molar enthalpies of formation in condensed phases can be obtained by combining high-level quantum chemistry calculations of gas-phase enthalpies of formation with experimentally determined enthalpies of sublimation or vapourization. The procedure is illustrated for catechol, resorcinol, and hydroquinone. Using W1-F12, the gas-phase enthalpies of formation of these compounds at T = 298.15 K were computed as ( 270.6, 269.4, and 261.0) kJ/mol, respectively, with an uncertainty of 0.4 kJ/mol. Using well characterised solid samples, the enthalpies of sublimation were determined with a Calvet microcalorimeter, leading to the following values at T = 298.15 K: (88.3 +- 0.3) kJ/mol, (99.7 +- 0.4) kJ/mol, and (102.0 +- 0.9) kJ/mol, respectively. It is shown that these results are consistent with the crystalline structures of the compounds.","eSourceType":"Original"},"Compound":[{"Sample":[{"eSource":"Commercial source","nSampleNm":1,"purity":[{"eAnalMeth":["Stated by supplier"],"tml_elements":["nStep","nPurityMol","nPurityMolDigits","eAnalMeth"],"nPurityMol":99,"nStep":1,"nPurityMolDigits":2},{"ePurifMethod":["Sublimation"],"nStep":2,"tml_elements":["nStep","ePurifMethod"]},{"nPurityMolDigits":3,"nStep":3,"tml_elements":["nStep","nPurityMol","nPurityMolDigits","eAnalMeth"],"nPurityMol":99.9,"eAnalMeth":["Gas chromatography"]}],"tml_elements":["nSampleNm","eSource","purity"]}],"tml_elements":["RegNum","sStandardInChI","sStandardInChIKey","sCommonName","sFormulaMolec","Sample"],"sCommonName":["1,2-benzenediol","1,2-dihydroxybenzene","2-hydroxyphenol","benzene, 1,2-dihydroxy-","catechol","o-benzenediol","o-dihydroxybenzene","pyrocatechol"],"sFormulaMolec":"C6H6O2","sStandardInChIKey":"YCIMNLLNPGFGHC-UHFFFAOYSA-N","RegNum":{"tml_elements":["nOrgNum"],"nOrgNum":1},"sStandardInChI":"InChI=1S/C6H6O2/c7-5-3-1-2-4-6(5)8/h1-4,7-8H"},{"sFormulaMolec":"C6H6O2","Sample":[{"tml_elements":["nSampleNm","eSource","purity"],"purity":[{"eAnalMeth":["Stated by supplier"],"tml_elements":["nStep","nPurityMol","nPurityMolDigits","eAnalMeth"],"nPurityMol":99,"nStep":1,"nPurityMolDigits":2},{"tml_elements":["nStep","ePurifMethod"],"nStep":2,"ePurifMethod":["Sublimation"]},{"eAnalMeth":["Gas chromatography"],"tml_elements":["nStep","nPurityMol","nPurityMolDigits","eAnalMeth"],"nPurityMol":99.9,"nPurityMolDigits":3,"nStep":3}],"eSource":"Commercial source","nSampleNm":1}],"tml_elements":["RegNum","sStandardInChI","sStandardInChIKey","sCommonName","sFormulaMolec","Sample"],"sCommonName":["1,3-benzenediol","1,3-dihydroxybenzene","3-hydroxyphenol","m-benzenediol","m-dihydroxybenzene","resorcinol"],"sStandardInChIKey":"GHMLBKRAJCXXBS-UHFFFAOYSA-N","RegNum":{"nOrgNum":2,"tml_elements":["nOrgNum"]},"sStandardInChI":"InChI=1S/C6H6O2/c7-5-2-1-3-6(8)4-5/h1-4,7-8H"},{"sFormulaMolec":"C6H6O2","tml_elements":["RegNum","sStandardInChI","sStandardInChIKey","sCommonName","sFormulaMolec","Sample"],"sCommonName":["1,4-benzenediol","1,4-dihydroxybenzene","benzohydroquinone","benzoquinol","hydroquinone","p-benzenediol","p-dihydroxybenzene","p-dioxybenzene","p-hydroxyphenol","p-quinol"],"Sample":[{"purity":[{"nStep":1,"nPurityMolDigits":2,"tml_elements":["nStep","nPurityMol","nPurityMolDigits","eAnalMeth"],"nPurityMol":99,"eAnalMeth":["Stated by supplier"]},{"tml_elements":["nStep","ePurifMethod"],"nStep":2,"ePurifMethod":["Sublimation"]},{"eAnalMeth":["Gas chromatography"],"nStep":3,"nPurityMolDigits":3,"nPurityMol":99.9,"tml_elements":["nStep","nPurityMol","nPurityMolDigits","eAnalMeth"]}],"tml_elements":["nSampleNm","eSource","purity"],"eSource":"Commercial source","nSampleNm":1}],"sStandardInChIKey":"QIGBRXMKCJKVMJ-UHFFFAOYSA-N","RegNum":{"tml_elements":["nOrgNum"],"nOrgNum":3},"sStandardInChI":"InChI=1S/C6H6O2/c7-5-1-2-6(8)4-3-5/h1-4,7-8H"}],"Version":{"tml_elements":["nVersionMajor","nVersionMinor"],"nVersionMinor":0,"nVersionMajor":2}}