{"Version":{"tml_elements":["nVersionMajor","nVersionMinor"],"nVersionMajor":2,"nVersionMinor":0},"THERMOML_MD5_CHECKSUM":"4556cf6c3f1a0c6f0a1bc1b884b8cf23","Citation":{"yrPubYr":"2014","sPubName":"J. Chem. Thermodyn.","dateCit":"2020-09-29","sPage":"57-61","eType":"journal","sVol":"73","eSourceType":"Original","sDOI":"10.1016/j.jct.2013.08.026","sTitle":"Experimental and computational study on the energetics of N-acetyl-L-cysteine","TRCRefID":{"yrYrPub":"2014","sAuthor2":"rou","sAuthor1":"not","tml_elements":["yrYrPub","sAuthor1","sAuthor2","nAuthorn"],"nAuthorn":"0"},"sAbstract":"The standard (p = 0.1 MPa) molar enthalpy of formation, in the crystalline phase, of N-acetyl-L-cysteine, NAC, at T = 298.15 K, was derived from the standard molar energy of combustion in oxygen, measured by static bomb combustion calorimetry. A value of (737.8 +- 1.9) kJ/mol was obtained. For this compound, the standard molar enthalpy of sublimation, at T=298.15 K, could not be determined due to the decomposition of the compound during the corresponding experiments. A theoretical study at the G3 and G4 levels has been carried out, and a value of (610.7 +- 4.0) kJ/mol is recommend for the enthalpy of formation in the gas phase. Using this theoretical value and the experimental enthalpy of formation in the crystalline phase, it is possible to estimate a value of (127.1 +- 4.4) kJ/mol for the enthalpy of sublimation of this compound.","sAuthor":["Notario, R.[Rafael]","Roux, M. V.[MarIa Victoria]","Santos, A. F. L. O. M.[Ana Filipa L.O.M.]","Ribeiro da Silva, M. D. M. C.[Maria D.M.C.]"],"sKeyword":["Enthalpy of combustion","Enthalpy of formation","Combustion calorimetry","G3 and G4 calculations","N-acetyl-L-cysteine"],"tml_elements":["TRCRefID","eType","eSourceType","sAuthor","sPubName","yrPubYr","dateCit","sTitle","sAbstract","sKeyword","sDOI","sVol","sPage"]},"Compound":[{"sStandardInChIKey":"QAOWNCQODCNURD-UHFFFAOYSA-N","sFormulaMolec":"H2O4S","tml_elements":["RegNum","sStandardInChI","sStandardInChIKey","sCommonName","sFormulaMolec"],"sCommonName":["sulfuric acid"],"RegNum":{"tml_elements":["nOrgNum"],"nOrgNum":1},"sStandardInChI":"InChI=1S/H2O4S/c1-5(2,3)4/h(H2,1,2,3,4)"},{"sCommonName":["carbon dioxide"],"tml_elements":["RegNum","sStandardInChI","sStandardInChIKey","sCommonName","sFormulaMolec"],"sFormulaMolec":"CO2","sStandardInChIKey":"CURLTUGMZLYLDI-UHFFFAOYSA-N","RegNum":{"tml_elements":["nOrgNum"],"nOrgNum":2},"sStandardInChI":"InChI=1S/CO2/c2-1-3"},{"sStandardInChI":"InChI=1S/N2/c1-2","RegNum":{"tml_elements":["nOrgNum"],"nOrgNum":3},"sCommonName":["nitrogen"],"tml_elements":["RegNum","sStandardInChI","sStandardInChIKey","sCommonName","sFormulaMolec"],"sStandardInChIKey":"IJGRMHOSHXDMSA-UHFFFAOYSA-N","sFormulaMolec":"N2"},{"sStandardInChIKey":"XLYOFNOQVPJJNP-UHFFFAOYSA-N","sFormulaMolec":"H2O","sCommonName":["water"],"tml_elements":["RegNum","sStandardInChI","sStandardInChIKey","sCommonName","sFormulaMolec"],"RegNum":{"nOrgNum":4,"tml_elements":["nOrgNum"]},"sStandardInChI":"InChI=1S/H2O/h1H2"},{"tml_elements":["RegNum","sStandardInChI","sStandardInChIKey","sCommonName","sFormulaMolec"],"sCommonName":["oxygen"],"sFormulaMolec":"O2","sStandardInChI":"InChI=1S/O2/c1-2","RegNum":{"nOrgNum":5,"tml_elements":["nOrgNum"]},"sStandardInChIKey":"MYMOFIZGZYHOMD-UHFFFAOYSA-N"},{"sStandardInChIKey":"PWKSKIMOESPYIA-BYPYZUCNSA-N","sStandardInChI":"InChI=1S/C5H9NO3S/c1-3(7)6-4(2-10)5(8)9/h4,10H,2H2,1H3,(H,6,7)(H,8,9)/t4-/m0/s1","RegNum":{"tml_elements":["nOrgNum"],"nOrgNum":6},"Sample":[{"tml_elements":["nSampleNm","eSource","purity"],"purity":[{"eAnalMeth":["Stated by supplier"],"nPurityMolDigits":2,"nStep":1,"tml_elements":["nStep","nPurityMol","nPurityMolDigits","eAnalMeth"],"nPurityMol":99},{"ePurifMethod":["None used"],"nStep":2,"tml_elements":["nStep","ePurifMethod"]},{"eAnalMeth":["Gas chromatography"],"nStep":3,"nPurityMolDigits":4,"tml_elements":["nStep","nPurityMol","nPurityMolDigits","eAnalMeth"],"nPurityMol":99.93}],"eSource":"Commercial source","nSampleNm":1}],"sCommonName":["N-acetyl-L-cysteine"],"tml_elements":["RegNum","sStandardInChI","sStandardInChIKey","sCommonName","sFormulaMolec","Sample"],"sFormulaMolec":"C5H9NO3S"}],"tml_elements":["Version","Citation","Compound","ReactionData"],"ReactionData":[{"sCompiler":"AB","dateDateAdded":"6/11/2014","NumValues":[{"VariableValue":[],"tml_elements":["PropertyValue"],"PropertyValue":[{"tml_elements":["nPropNumber","nPropValue","nPropDigits","CombinedUncertainty"],"nPropDigits":6,"nPropNumber":1,"nPropValue":-19079.4,"CombinedUncertainty":{"nCombUncertAssessNum":1,"tml_elements":["nCombUncertAssessNum","nCombExpandUncertValue"],"nCombExpandUncertValue":11.7}}]}],"Property":[{"nPropNumber":1,"tml_elements":["nPropNumber","Property-MethodID","nTemperature-K","nTemperatureDigits","nPressure-kPa","nPressureDigits","CombinedUncertainty"],"CombinedUncertainty":{"sCombUncertEvaluator":"Data file compiler","nCombUncertAssessNum":1,"eCombUncertEvalMethod":"Propagation of evaluated standard uncertainties","nCombUncertLevOfConfid":95,"tml_elements":["nCombUncertAssessNum","sCombUncertEvaluator","eCombUncertEvalMethod","nCombUncertLevOfConfid"]},"nTemperature-K":"298.15","nPressureDigits":1,"nPressure-kPa":"100","Property-MethodID":{"PropertyGroup":{"tml_elements":["ReactionStateChangeProp"],"ReactionStateChangeProp":{"ePropName":"Specific internal energy of reaction at constant volume, J/g","eMethodName":"Rotating bomb calorimetry","tml_elements":["ePropName","eMethodName"]}},"tml_elements":["PropertyGroup"]},"nTemperatureDigits":5}],"eExpPurpose":"Principal objective of the work","nReactionDataNumber":1,"sContributor":"TRC","eReactionType":"Combustion with oxygen","Participant":[{"RegNum":{"nOrgNum":6,"tml_elements":["nOrgNum"]},"nStoichiometricCoef":"-1","nSampleNm":1,"tml_elements":["RegNum","nSampleNm","nStoichiometricCoef","ePhase"],"ePhase":"Crystal"},{"nStoichiometricCoef":"1","RegNum":{"tml_elements":["nOrgNum"],"nOrgNum":1},"tml_elements":["RegNum","nStoichiometricCoef","ePhase"],"ePhase":"Solution 1"},{"ePhase":"Ideal gas","tml_elements":["RegNum","nStoichiometricCoef","ePhase"],"nStoichiometricCoef":"5","RegNum":{"nOrgNum":2,"tml_elements":["nOrgNum"]}},{"tml_elements":["RegNum","nStoichiometricCoef","ePhase"],"ePhase":"Ideal gas","nStoichiometricCoef":".5","RegNum":{"tml_elements":["nOrgNum"],"nOrgNum":3}},{"tml_elements":["RegNum","nStoichiometricCoef","ePhase"],"ePhase":"Liquid","nStoichiometricCoef":"3.5","RegNum":{"nOrgNum":4,"tml_elements":["nOrgNum"]}},{"RegNum":{"nOrgNum":5,"tml_elements":["nOrgNum"]},"nStoichiometricCoef":"-7.25","tml_elements":["RegNum","nStoichiometricCoef","ePhase"],"ePhase":"Ideal gas"}],"tml_elements":["nReactionDataNumber","Participant","eExpPurpose","sCompiler","sContributor","dateDateAdded","eReactionType","Property","NumValues"]}]}