{"Compound":[{"sFormulaMolec":"CO2","sStandardInChIKey":"CURLTUGMZLYLDI-UHFFFAOYSA-N","sCommonName":["carbon dioxide"],"tml_elements":["RegNum","sStandardInChI","sStandardInChIKey","sCommonName","sFormulaMolec"],"RegNum":{"tml_elements":["nOrgNum"],"nOrgNum":1},"sStandardInChI":"InChI=1S/CO2/c2-1-3"},{"tml_elements":["RegNum","sStandardInChI","sStandardInChIKey","sCommonName","sFormulaMolec"],"sCommonName":["water"],"sFormulaMolec":"H2O","sStandardInChIKey":"XLYOFNOQVPJJNP-UHFFFAOYSA-N","RegNum":{"nOrgNum":2,"tml_elements":["nOrgNum"]},"sStandardInChI":"InChI=1S/H2O/h1H2"},{"sStandardInChI":"InChI=1S/O2/c1-2","RegNum":{"nOrgNum":3,"tml_elements":["nOrgNum"]},"sStandardInChIKey":"MYMOFIZGZYHOMD-UHFFFAOYSA-N","sFormulaMolec":"O2","sCommonName":["oxygen"],"tml_elements":["RegNum","sStandardInChI","sStandardInChIKey","sCommonName","sFormulaMolec"]},{"tml_elements":["RegNum","sStandardInChI","sStandardInChIKey","sCommonName","sFormulaMolec","Sample"],"Sample":[{"eSource":"Commercial source","nSampleNm":1,"purity":[{"tml_elements":["nStep","ePurifMethod"],"nStep":1,"ePurifMethod":["Crystallization from solution"]},{"nStep":2,"nPurityMassDigits":4,"tml_elements":["nStep","nPurityMass","nPurityMassDigits","eAnalMeth"],"nPurityMass":99.99,"eAnalMeth":["Gas chromatography"]},{"eAnalMeth":["Fraction melting in an adiabatic calorimeter"],"tml_elements":["nStep","nPurityMol","nPurityMolDigits","eAnalMeth"],"nPurityMol":99.95,"nStep":3,"nPurityMolDigits":4},{"nPurityMass":99.98,"eAnalMeth":["CO2 yield in combustion products"],"tml_elements":["nStep","nPurityMass","nPurityMassDigits","eAnalMeth"],"nPurityMassDigits":4,"nStep":4}],"tml_elements":["nSampleNm","eSource","purity"]}],"sCommonName":["diphenyl ether","benzene, 1,1'-oxybis-","diphenyl oxide","phenoxybenzene","phenyl ether"],"sFormulaMolec":"C12H10O","RegNum":{"nOrgNum":4,"tml_elements":["nOrgNum"]},"sStandardInChI":"InChI=1S/C12H10O/c1-3-7-11(8-4-1)13-12-9-5-2-6-10-12/h1-10H","sStandardInChIKey":"USIUVYZYUHIAEV-UHFFFAOYSA-N"}],"THERMOML_MD5_CHECKSUM":"1b5227027677ce0076f2ca3e3ac75e7e","PureOrMixtureData":[{"eExpPurpose":"Principal objective of the work","Property":[{"tml_elements":["nPropNumber","Property-MethodID","PropPhaseID","ePresentation","CombinedUncertainty"],"ePresentation":"Direct value, X","nPropNumber":1,"Property-MethodID":{"PropertyGroup":{"PhaseTransition":{"eMethodName":"Adiabatic calorimetry","ePropName":"Molar enthalpy of transition or fusion, kJ/mol","tml_elements":["ePropName","eMethodName"]},"tml_elements":["PhaseTransition"]},"tml_elements":["PropertyGroup"]},"PropPhaseID":{"tml_elements":["ePropPhase"],"ePropPhase":"Crystal"},"CombinedUncertainty":{"eCombUncertEvalMethod":"Propagation of evaluated standard uncertainties","nCombUncertLevOfConfid":95,"tml_elements":["nCombUncertAssessNum","sCombUncertEvaluator","eCombUncertEvalMethod","nCombUncertLevOfConfid"],"sCombUncertEvaluator":"Data file compiler","nCombUncertAssessNum":1}}],"NumValues":[{"VariableValue":[],"tml_elements":["PropertyValue"],"PropertyValue":[{"nPropDigits":5,"nPropNumber":1,"tml_elements":["nPropNumber","nPropValue","nPropDigits","CombinedUncertainty"],"nPropValue":17.122,"CombinedUncertainty":{"nCombUncertAssessNum":1,"tml_elements":["nCombUncertAssessNum","nCombExpandUncertValue"],"nCombExpandUncertValue":0.125}}]}],"sCompiler":"AB","dateDateAdded":"4/9/2018","nPureOrMixtureDataNumber":1,"Component":[{"tml_elements":["RegNum","nSampleNm"],"nSampleNm":1,"RegNum":{"nOrgNum":4,"tml_elements":["nOrgNum"]}}],"PhaseID":[{"ePhase":"Crystal","tml_elements":["ePhase"]},{"ePhase":"Liquid","tml_elements":["ePhase"]},{"tml_elements":["ePhase"],"ePhase":"Gas"}],"tml_elements":["nPureOrMixtureDataNumber","Component","eExpPurpose","sCompiler","sContributor","dateDateAdded","Property","PhaseID","NumValues"],"sContributor":"TRC"},{"Property":[{"PropPhaseID":{"tml_elements":["ePropPhase"],"ePropPhase":"Crystal"},"nPropNumber":1,"ePresentation":"Direct value, X","tml_elements":["nPropNumber","Property-MethodID","PropPhaseID","ePresentation","CombinedUncertainty"],"CombinedUncertainty":{"tml_elements":["nCombUncertAssessNum","sCombUncertEvaluator","eCombUncertEvalMethod","nCombUncertLevOfConfid"],"nCombUncertLevOfConfid":95,"eCombUncertEvalMethod":"Propagation of evaluated standard uncertainties","nCombUncertAssessNum":1,"sCombUncertEvaluator":"Data file compiler"},"Property-MethodID":{"PropertyGroup":{"PhaseTransition":{"eMethodName":"Adiabatic calorimetry","ePropName":"Triple point temperature, K","tml_elements":["ePropName","eMethodName"]},"tml_elements":["PhaseTransition"]},"tml_elements":["PropertyGroup"]}}],"eExpPurpose":"Principal objective of the work","sCompiler":"AB","nPureOrMixtureDataNumber":2,"dateDateAdded":"4/9/2018","NumValues":[{"VariableValue":[],"PropertyValue":[{"CombinedUncertainty":{"nCombUncertAssessNum":1,"nCombExpandUncertValue":0.05,"tml_elements":["nCombUncertAssessNum","nCombExpandUncertValue"]},"nPropValue":299.96,"nPropDigits":5,"nPropNumber":1,"tml_elements":["nPropNumber","nPropValue","nPropDigits","CombinedUncertainty"]}],"tml_elements":["PropertyValue"]}],"PhaseID":[{"ePhase":"Crystal","tml_elements":["ePhase"]},{"ePhase":"Liquid","tml_elements":["ePhase"]},{"tml_elements":["ePhase"],"ePhase":"Gas"}],"tml_elements":["nPureOrMixtureDataNumber","Component","eExpPurpose","sCompiler","sContributor","dateDateAdded","Property","PhaseID","NumValues"],"Component":[{"RegNum":{"nOrgNum":4,"tml_elements":["nOrgNum"]},"nSampleNm":1,"tml_elements":["RegNum","nSampleNm"]}],"sContributor":"TRC"},{"Property":[{"ePresentation":"Direct value, X","tml_elements":["nPropNumber","Property-MethodID","PropPhaseID","ePresentation","CombinedUncertainty"],"Property-MethodID":{"PropertyGroup":{"HeatCapacityAndDerivedProp":{"ePropName":"Molar heat capacity at constant pressure, J/K/mol","eMethodName":"Small (less than 1 g) adiabatic calorimetry","tml_elements":["ePropName","eMethodName"]},"tml_elements":["HeatCapacityAndDerivedProp"]},"tml_elements":["PropertyGroup"]},"PropPhaseID":{"tml_elements":["ePropPhase"],"ePropPhase":"Crystal"},"nPropNumber":1,"CombinedUncertainty":{"tml_elements":["nCombUncertAssessNum","sCombUncertEvaluator","eCombUncertEvalMethod","nCombUncertLevOfConfid"],"eCombUncertEvalMethod":"Propagation of evaluated standard uncertainties","nCombUncertLevOfConfid":95,"nCombUncertAssessNum":1,"sCombUncertEvaluator":"Data file compiler"}}],"eExpPurpose":"Principal objective of the work","NumValues":[{"VariableValue":[{"nVarNumber":1,"nVarDigits":6,"tml_elements":["nVarNumber","nVarValue","nVarDigits"],"nVarValue":282.085}],"tml_elements":["VariableValue","PropertyValue"],"PropertyValue":[{"CombinedUncertainty":{"nCombExpandUncertValue":1.41,"tml_elements":["nCombUncertAssessNum","nCombExpandUncertValue"],"nCombUncertAssessNum":1},"nPropValue":202.2,"nPropDigits":5,"nPropNumber":1,"tml_elements":["nPropNumber","nPropValue","nPropDigits","CombinedUncertainty"]}]},{"PropertyValue":[{"nPropDigits":5,"nPropNumber":1,"tml_elements":["nPropNumber","nPropValue","nPropDigits","CombinedUncertainty"],"nPropValue":202.92,"CombinedUncertainty":{"tml_elements":["nCombUncertAssessNum","nCombExpandUncertValue"],"nCombExpandUncertValue":1.41,"nCombUncertAssessNum":1}}],"tml_elements":["VariableValue","PropertyValue"],"VariableValue":[{"nVarValue":283.341,"nVarDigits":6,"tml_elements":["nVarNumber","nVarValue","nVarDigits"],"nVarNumber":1}]},{"VariableValue":[{"tml_elements":["nVarNumber","nVarValue","nVarDigits"],"nVarDigits":6,"nVarNumber":1,"nVarValue":285.844}],"tml_elements":["VariableValue","PropertyValue"],"PropertyValue":[{"CombinedUncertainty":{"tml_elements":["nCombUncertAssessNum","nCombExpandUncertValue"],"nCombExpandUncertValue":1.42,"nCombUncertAssessNum":1},"nPropValue":203.66,"tml_elements":["nPropNumber","nPropValue","nPropDigits","CombinedUncertainty"],"nPropDigits":5,"nPropNumber":1}]},{"VariableValue":[{"nVarValue":287.091,"tml_elements":["nVarNumber","nVarValue","nVarDigits"],"nVarDigits":6,"nVarNumber":1}],"tml_elements":["VariableValue","PropertyValue"],"PropertyValue":[{"nPropDigits":5,"nPropNumber":1,"tml_elements":["nPropNumber","nPropValue","nPropDigits","CombinedUncertainty"],"CombinedUncertainty":{"tml_elements":["nCombUncertAssessNum","nCombExpandUncertValue"],"nCombExpandUncertValue":1.43,"nCombUncertAssessNum":1},"nPropValue":205.43}]},{"VariableValue":[{"nVarValue":288.329,"tml_elements":["nVarNumber","nVarValue","nVarDigits"],"nVarDigits":6,"nVarNumber":1}],"PropertyValue":[{"CombinedUncertainty":{"nCombExpandUncertValue":1.43,"tml_elements":["nCombUncertAssessNum","nCombExpandUncertValue"],"nCombUncertAssessNum":1},"nPropValue":206.1,"nPropDigits":5,"nPropNumber":1,"tml_elements":["nPropNumber","nPropValue","nPropDigits","CombinedUncertainty"]}],"tml_elements":["VariableValue","PropertyValue"]},{"tml_elements":["VariableValue","PropertyValue"],"PropertyValue":[{"tml_elements":["nPropNumber","nPropValue","nPropDigits","CombinedUncertainty"],"nPropNumber":1,"nPropDigits":5,"nPropValue":207.25,"CombinedUncertainty":{"nCombUncertAssessNum":1,"tml_elements":["nCombUncertAssessNum","nCombExpandUncertValue"],"nCombExpandUncertValue":1.44}}],"VariableValue":[{"nVarValue":289.586,"nVarNumber":1,"tml_elements":["nVarNumber","nVarValue","nVarDigits"],"nVarDigits":6}]},{"PropertyValue":[{"nPropNumber":1,"nPropDigits":5,"tml_elements":["nPropNumber","nPropValue","nPropDigits","CombinedUncertainty"],"CombinedUncertainty":{"nCombExpandUncertValue":1.45,"tml_elements":["nCombUncertAssessNum","nCombExpandUncertValue"],"nCombUncertAssessNum":1},"nPropValue":208.01}],"tml_elements":["VariableValue","PropertyValue"],"VariableValue":[{"nVarValue":290.841,"tml_elements":["nVarNumber","nVarValue","nVarDigits"],"nVarDigits":6,"nVarNumber":1}]},{"tml_elements":["VariableValue","PropertyValue"],"PropertyValue":[{"tml_elements":["nPropNumber","nPropValue","nPropDigits","CombinedUncertainty"],"nPropNumber":1,"nPropDigits":5,"nPropValue":209.17,"CombinedUncertainty":{"nCombExpandUncertValue":1.45,"tml_elements":["nCombUncertAssessNum","nCombExpandUncertValue"],"nCombUncertAssessNum":1}}],"VariableValue":[{"nVarValue":292.097,"nVarNumber":1,"tml_elements":["nVarNumber","nVarValue","nVarDigits"],"nVarDigits":6}]}],"nPureOrMixtureDataNumber":3,"dateDateAdded":"4/9/2018","sCompiler":"AB","Component":[{"tml_elements":["RegNum","nSampleNm"],"nSampleNm":1,"RegNum":{"nOrgNum":4,"tml_elements":["nOrgNum"]}}],"Variable":[{"VariableID":{"tml_elements":["VariableType"],"VariableType":{"eTemperature":"Temperature, K","tml_elements":["eTemperature"]}},"VarPhaseID":{"eVarPhase":"Crystal","tml_elements":["eVarPhase"]},"nVarNumber":1,"tml_elements":["nVarNumber","VariableID","VarPhaseID"]}],"tml_elements":["nPureOrMixtureDataNumber","Component","eExpPurpose","sCompiler","sContributor","dateDateAdded","Property","PhaseID","Constraint","Variable","NumValues"],"PhaseID":[{"tml_elements":["ePhase"],"ePhase":"Crystal"}],"sContributor":"TRC","Constraint":[{"nConstrDigits":6,"nConstraintNumber":1,"ConstraintID":{"tml_elements":["ConstraintType"],"ConstraintType":{"ePressure":"Pressure, kPa","tml_elements":["ePressure"]}},"ConstraintPhaseID":{"tml_elements":["eConstraintPhase"],"eConstraintPhase":"Crystal"},"tml_elements":["nConstraintNumber","ConstraintID","ConstraintPhaseID","nConstraintValue","nConstrDigits"],"nConstraintValue":101.325}]},{"tml_elements":["nPureOrMixtureDataNumber","Component","eExpPurpose","sCompiler","sContributor","dateDateAdded","Property","PhaseID","Constraint","Variable","NumValues"],"PhaseID":[{"ePhase":"Liquid","tml_elements":["ePhase"]}],"sContributor":"TRC","Constraint":[{"nConstraintValue":101.325,"tml_elements":["nConstraintNumber","ConstraintID","ConstraintPhaseID","nConstraintValue","nConstrDigits"],"ConstraintPhaseID":{"eConstraintPhase":"Liquid","tml_elements":["eConstraintPhase"]},"ConstraintID":{"tml_elements":["ConstraintType"],"ConstraintType":{"tml_elements":["ePressure"],"ePressure":"Pressure, kPa"}},"nConstrDigits":6,"nConstraintNumber":1}],"Component":[{"nSampleNm":1,"RegNum":{"tml_elements":["nOrgNum"],"nOrgNum":4},"tml_elements":["RegNum","nSampleNm"]}],"Variable":[{"tml_elements":["nVarNumber","VariableID","VarPhaseID"],"VarPhaseID":{"tml_elements":["eVarPhase"],"eVarPhase":"Liquid"},"nVarNumber":1,"VariableID":{"tml_elements":["VariableType"],"VariableType":{"tml_elements":["eTemperature"],"eTemperature":"Temperature, K"}}}],"Property":[{"CombinedUncertainty":{"tml_elements":["nCombUncertAssessNum","sCombUncertEvaluator","eCombUncertEvalMethod","nCombUncertLevOfConfid"],"eCombUncertEvalMethod":"Propagation of evaluated standard uncertainties","nCombUncertLevOfConfid":95,"nCombUncertAssessNum":1,"sCombUncertEvaluator":"Data file compiler"},"Property-MethodID":{"tml_elements":["PropertyGroup"],"PropertyGroup":{"HeatCapacityAndDerivedProp":{"tml_elements":["ePropName","eMethodName"],"ePropName":"Molar heat capacity at constant pressure, J/K/mol","eMethodName":"Small (less than 1 g) adiabatic calorimetry"},"tml_elements":["HeatCapacityAndDerivedProp"]}},"tml_elements":["nPropNumber","Property-MethodID","PropPhaseID","ePresentation","CombinedUncertainty"],"ePresentation":"Direct value, X","nPropNumber":1,"PropPhaseID":{"tml_elements":["ePropPhase"],"ePropPhase":"Liquid"}}],"eExpPurpose":"Principal objective of the work","NumValues":[{"VariableValue":[{"nVarValue":321.459,"nVarNumber":1,"tml_elements":["nVarNumber","nVarValue","nVarDigits"],"nVarDigits":6}],"tml_elements":["VariableValue","PropertyValue"],"PropertyValue":[{"nPropValue":276.46,"CombinedUncertainty":{"nCombUncertAssessNum":1,"nCombExpandUncertValue":1.9,"tml_elements":["nCombUncertAssessNum","nCombExpandUncertValue"]},"nPropNumber":1,"nPropDigits":5,"tml_elements":["nPropNumber","nPropValue","nPropDigits","CombinedUncertainty"]}]},{"tml_elements":["VariableValue","PropertyValue"],"PropertyValue":[{"tml_elements":["nPropNumber","nPropValue","nPropDigits","CombinedUncertainty"],"nPropDigits":5,"nPropNumber":1,"nPropValue":278.21,"CombinedUncertainty":{"nCombUncertAssessNum":1,"tml_elements":["nCombUncertAssessNum","nCombExpandUncertValue"],"nCombExpandUncertValue":1.91}}],"VariableValue":[{"nVarValue":323.17,"tml_elements":["nVarNumber","nVarValue","nVarDigits"],"nVarDigits":6,"nVarNumber":1}]},{"VariableValue":[{"nVarDigits":6,"tml_elements":["nVarNumber","nVarValue","nVarDigits"],"nVarNumber":1,"nVarValue":324.895}],"PropertyValue":[{"nPropDigits":5,"nPropNumber":1,"tml_elements":["nPropNumber","nPropValue","nPropDigits","CombinedUncertainty"],"nPropValue":278.93,"CombinedUncertainty":{"tml_elements":["nCombUncertAssessNum","nCombExpandUncertValue"],"nCombExpandUncertValue":1.91,"nCombUncertAssessNum":1}}],"tml_elements":["VariableValue","PropertyValue"]},{"tml_elements":["VariableValue","PropertyValue"],"PropertyValue":[{"CombinedUncertainty":{"tml_elements":["nCombUncertAssessNum","nCombExpandUncertValue"],"nCombExpandUncertValue":1.92,"nCombUncertAssessNum":1},"nPropValue":279.41,"nPropNumber":1,"nPropDigits":5,"tml_elements":["nPropNumber","nPropValue","nPropDigits","CombinedUncertainty"]}],"VariableValue":[{"nVarDigits":6,"tml_elements":["nVarNumber","nVarValue","nVarDigits"],"nVarNumber":1,"nVarValue":326.629}]},{"tml_elements":["VariableValue","PropertyValue"],"PropertyValue":[{"nPropValue":279.66,"CombinedUncertainty":{"tml_elements":["nCombUncertAssessNum","nCombExpandUncertValue"],"nCombExpandUncertValue":1.92,"nCombUncertAssessNum":1},"nPropDigits":5,"nPropNumber":1,"tml_elements":["nPropNumber","nPropValue","nPropDigits","CombinedUncertainty"]}],"VariableValue":[{"nVarValue":328.37,"nVarDigits":6,"tml_elements":["nVarNumber","nVarValue","nVarDigits"],"nVarNumber":1}]},{"VariableValue":[{"nVarValue":330.101,"nVarNumber":1,"nVarDigits":6,"tml_elements":["nVarNumber","nVarValue","nVarDigits"]}],"PropertyValue":[{"nPropNumber":1,"nPropDigits":5,"tml_elements":["nPropNumber","nPropValue","nPropDigits","CombinedUncertainty"],"CombinedUncertainty":{"nCombUncertAssessNum":1,"tml_elements":["nCombUncertAssessNum","nCombExpandUncertValue"],"nCombExpandUncertValue":1.93},"nPropValue":280.76}],"tml_elements":["VariableValue","PropertyValue"]},{"VariableValue":[{"nVarNumber":1,"nVarDigits":6,"tml_elements":["nVarNumber","nVarValue","nVarDigits"],"nVarValue":331.85}],"PropertyValue":[{"nPropValue":281.87,"CombinedUncertainty":{"tml_elements":["nCombUncertAssessNum","nCombExpandUncertValue"],"nCombExpandUncertValue":1.93,"nCombUncertAssessNum":1},"nPropDigits":5,"nPropNumber":1,"tml_elements":["nPropNumber","nPropValue","nPropDigits","CombinedUncertainty"]}],"tml_elements":["VariableValue","PropertyValue"]},{"VariableValue":[{"nVarValue":333.608,"tml_elements":["nVarNumber","nVarValue","nVarDigits"],"nVarDigits":6,"nVarNumber":1}],"tml_elements":["VariableValue","PropertyValue"],"PropertyValue":[{"tml_elements":["nPropNumber","nPropValue","nPropDigits","CombinedUncertainty"],"nPropNumber":1,"nPropDigits":5,"CombinedUncertainty":{"nCombUncertAssessNum":1,"nCombExpandUncertValue":1.94,"tml_elements":["nCombUncertAssessNum","nCombExpandUncertValue"]},"nPropValue":282.69}]},{"tml_elements":["VariableValue","PropertyValue"],"PropertyValue":[{"nPropDigits":5,"nPropNumber":1,"tml_elements":["nPropNumber","nPropValue","nPropDigits","CombinedUncertainty"],"CombinedUncertainty":{"tml_elements":["nCombUncertAssessNum","nCombExpandUncertValue"],"nCombExpandUncertValue":1.94,"nCombUncertAssessNum":1},"nPropValue":283.24}],"VariableValue":[{"nVarValue":335.375,"tml_elements":["nVarNumber","nVarValue","nVarDigits"],"nVarDigits":6,"nVarNumber":1}]}],"dateDateAdded":"4/9/2018","nPureOrMixtureDataNumber":4,"sCompiler":"AB"}],"ReactionData":[{"Participant":[{"nStoichiometricCoef":"-1","nSampleNm":1,"RegNum":{"nOrgNum":4,"tml_elements":["nOrgNum"]},"tml_elements":["RegNum","nSampleNm","nStoichiometricCoef","ePhase"],"ePhase":"Crystal"},{"tml_elements":["RegNum","nStoichiometricCoef","ePhase"],"ePhase":"Ideal gas","nStoichiometricCoef":"12","RegNum":{"nOrgNum":1,"tml_elements":["nOrgNum"]}},{"tml_elements":["RegNum","nStoichiometricCoef","ePhase"],"ePhase":"Liquid","RegNum":{"nOrgNum":2,"tml_elements":["nOrgNum"]},"nStoichiometricCoef":"5"},{"tml_elements":["RegNum","nStoichiometricCoef","ePhase"],"ePhase":"Ideal gas","nStoichiometricCoef":"-14","RegNum":{"tml_elements":["nOrgNum"],"nOrgNum":3}}],"tml_elements":["nReactionDataNumber","Participant","eExpPurpose","sCompiler","sContributor","dateDateAdded","eReactionType","Property","NumValues"],"eReactionType":"Combustion with oxygen","sContributor":"TRC","nReactionDataNumber":1,"eExpPurpose":"Principal objective of the work","Property":[{"Property-MethodID":{"PropertyGroup":{"tml_elements":["ReactionStateChangeProp"],"ReactionStateChangeProp":{"tml_elements":["ePropName","eMethodName"],"eMethodName":"Static bomb calorimetry","ePropName":"Specific internal energy of reaction at constant volume, J/g"}},"tml_elements":["PropertyGroup"]},"nTemperatureDigits":5,"nTemperature-K":"298.15","CombinedUncertainty":{"sCombUncertEvaluator":"Data file compiler","nCombUncertAssessNum":1,"nCombUncertLevOfConfid":95,"eCombUncertEvalMethod":"Propagation of evaluated standard uncertainties","tml_elements":["nCombUncertAssessNum","sCombUncertEvaluator","eCombUncertEvalMethod","nCombUncertLevOfConfid"]},"nPressure-kPa":"101.3","nPressureDigits":4,"nPropNumber":1,"tml_elements":["nPropNumber","Property-MethodID","nTemperature-K","nTemperatureDigits","nPressure-kPa","nPressureDigits","CombinedUncertainty"]}],"NumValues":[{"VariableValue":[],"tml_elements":["PropertyValue"],"PropertyValue":[{"tml_elements":["nPropNumber","nPropValue","nPropDigits","CombinedUncertainty"],"nPropNumber":1,"nPropDigits":6,"CombinedUncertainty":{"nCombUncertAssessNum":1,"tml_elements":["nCombUncertAssessNum","nCombExpandUncertValue"],"nCombExpandUncertValue":9.8},"nPropValue":-35929.7}]}],"dateDateAdded":"3/25/2019","sCompiler":"AB"},{"eReactionType":"Combustion with oxygen","tml_elements":["nReactionDataNumber","Participant","eExpPurpose","sCompiler","sContributor","dateDateAdded","eReactionType","Property","NumValues"],"Participant":[{"nStoichiometricCoef":"-1","nSampleNm":1,"RegNum":{"nOrgNum":4,"tml_elements":["nOrgNum"]},"tml_elements":["RegNum","nSampleNm","nStoichiometricCoef","ePhase"],"ePhase":"Liquid"},{"ePhase":"Ideal gas","tml_elements":["RegNum","nStoichiometricCoef","ePhase"],"RegNum":{"nOrgNum":1,"tml_elements":["nOrgNum"]},"nStoichiometricCoef":"12"},{"ePhase":"Liquid","tml_elements":["RegNum","nStoichiometricCoef","ePhase"],"nStoichiometricCoef":"5","RegNum":{"tml_elements":["nOrgNum"],"nOrgNum":2}},{"ePhase":"Ideal gas","tml_elements":["RegNum","nStoichiometricCoef","ePhase"],"nStoichiometricCoef":"-14","RegNum":{"nOrgNum":3,"tml_elements":["nOrgNum"]}}],"sContributor":"TRC","nReactionDataNumber":2,"eExpPurpose":"Principal objective of the work","Property":[{"nTemperatureDigits":5,"tml_elements":["nPropNumber","Property-MethodID","nTemperature-K","nTemperatureDigits","nPressure-kPa","nPressureDigits","CombinedUncertainty"],"Property-MethodID":{"PropertyGroup":{"tml_elements":["ReactionStateChangeProp"],"ReactionStateChangeProp":{"tml_elements":["ePropName","eMethodName"],"eMethodName":"Static bomb calorimetry","ePropName":"Specific internal energy of reaction at constant volume, J/g"}},"tml_elements":["PropertyGroup"]},"nPropNumber":1,"nPressure-kPa":"101.3","nPressureDigits":4,"CombinedUncertainty":{"nCombUncertAssessNum":1,"sCombUncertEvaluator":"Data file compiler","tml_elements":["nCombUncertAssessNum","sCombUncertEvaluator","eCombUncertEvalMethod","nCombUncertLevOfConfid"],"eCombUncertEvalMethod":"Propagation of evaluated standard uncertainties","nCombUncertLevOfConfid":95},"nTemperature-K":"298.15"}],"NumValues":[{"VariableValue":[],"tml_elements":["PropertyValue"],"PropertyValue":[{"CombinedUncertainty":{"nCombExpandUncertValue":9.8,"tml_elements":["nCombUncertAssessNum","nCombExpandUncertValue"],"nCombUncertAssessNum":1},"nPropValue":-36025.3,"tml_elements":["nPropNumber","nPropValue","nPropDigits","CombinedUncertainty"],"nPropNumber":1,"nPropDigits":6}]}],"sCompiler":"AB","dateDateAdded":"3/25/2019"}],"tml_elements":["Version","Citation","Compound","PureOrMixtureData","ReactionData"],"Citation":{"eSourceType":"Original","sTitle":"Standard enthalpy of formation of diphenyl oxide","sDOI":"10.1016/j.jct.2018.04.009","TRCRefID":{"yrYrPub":"2018","sAuthor2":"pim","sAuthor1":"luk","tml_elements":["yrYrPub","sAuthor1","sAuthor2","nAuthorn"],"nAuthorn":"0"},"sAbstract":"The energy of combustion of a pure sample diphenyl oxide in crystal and liquid states at T=298.15K was determined by isoperibolic calorimeter combustion. The enthalpy of fusion, the triple-point temperature and the purity of the sample were estimated by studying the melting process by calorimetric method. The enthalpies of formation in the crystalline, liquid and gaseous states were calculated. All results are compared with the experimental values reported in the literature. The value of gas-phase enthalpy of formation was calculated by G4 method in combination with isodesmic reactions. The results of this calculation are in good agreement with the obtained experimental value.","sAuthor":["Lukyanova, V.A.","Pimenova, S.M.","Druzhinina, A.I.","Tarazanov, S.M.","Dorofeeva, O.V."],"sKeyword":["Diphenyl oxide","Static-bomb isoperibolic calorimeter","Enthalpy of combustion","Adiabatic calorimetry","Enthalpy of formation"],"tml_elements":["TRCRefID","eType","eSourceType","sAuthor","sPubName","yrPubYr","dateCit","sTitle","sAbstract","sKeyword","sDOI","sVol","sPage"],"yrPubYr":"2018","sPubName":"J. Chem. Thermodyn.","dateCit":"2020-09-29","sPage":"43-48","sVol":"124","eType":"journal"},"Version":{"nVersionMinor":0,"nVersionMajor":2,"tml_elements":["nVersionMajor","nVersionMinor"]}}