{"tml_elements":["Version","Citation","Compound","PureOrMixtureData","ReactionData"],"ReactionData":[{"sContributor":"TRC","nReactionDataNumber":1,"eReactionType":"Combustion with oxygen","Participant":[{"ePhase":"Crystal","tml_elements":["RegNum","nSampleNm","nStoichiometricCoef","ePhase"],"RegNum":{"nOrgNum":6,"tml_elements":["nOrgNum"]},"nSampleNm":1,"nStoichiometricCoef":"-1"},{"ePhase":"Solution 1","tml_elements":["RegNum","nStoichiometricCoef","ePhase"],"nStoichiometricCoef":"1","RegNum":{"nOrgNum":1,"tml_elements":["nOrgNum"]}},{"tml_elements":["RegNum","nStoichiometricCoef","ePhase"],"ePhase":"Ideal gas","nStoichiometricCoef":"3","RegNum":{"tml_elements":["nOrgNum"],"nOrgNum":2}},{"tml_elements":["RegNum","nStoichiometricCoef","ePhase"],"ePhase":"Ideal gas","nStoichiometricCoef":"1","RegNum":{"nOrgNum":3,"tml_elements":["nOrgNum"]}},{"RegNum":{"tml_elements":["nOrgNum"],"nOrgNum":4},"nStoichiometricCoef":"1","ePhase":"Liquid","tml_elements":["RegNum","nStoichiometricCoef","ePhase"]},{"RegNum":{"nOrgNum":5,"tml_elements":["nOrgNum"]},"nStoichiometricCoef":"-5.5","tml_elements":["RegNum","nStoichiometricCoef","ePhase"],"ePhase":"Ideal gas"}],"tml_elements":["nReactionDataNumber","Participant","eExpPurpose","sCompiler","sContributor","dateDateAdded","eReactionType","Property","NumValues"],"NumValues":[{"VariableValue":[],"PropertyValue":[{"CombinedUncertainty":{"nCombUncertAssessNum":1,"nCombExpandUncertValue":11.22,"tml_elements":["nCombUncertAssessNum","nCombExpandUncertValue"]},"nPropValue":-23974.92,"tml_elements":["nPropNumber","nPropValue","nPropDigits","CombinedUncertainty"],"nPropNumber":1,"nPropDigits":7}],"tml_elements":["PropertyValue"]}],"sCompiler":"AB","dateDateAdded":"3/2/2016","Property":[{"CombinedUncertainty":{"eCombUncertEvalMethod":"Propagation of evaluated standard uncertainties","nCombUncertLevOfConfid":95,"tml_elements":["nCombUncertAssessNum","sCombUncertEvaluator","eCombUncertEvalMethod","nCombUncertLevOfConfid"],"sCombUncertEvaluator":"Data file compiler","nCombUncertAssessNum":1},"nTemperature-K":"298.15","nPressure-kPa":"100","nPressureDigits":1,"Property-MethodID":{"PropertyGroup":{"ReactionStateChangeProp":{"eMethodName":"Rotating bomb calorimetry","ePropName":"Specific internal energy of reaction at constant volume, J/g","tml_elements":["ePropName","eMethodName"]},"tml_elements":["ReactionStateChangeProp"]},"tml_elements":["PropertyGroup"]},"nTemperatureDigits":5,"nPropNumber":1,"tml_elements":["nPropNumber","Property-MethodID","nTemperature-K","nTemperatureDigits","nPressure-kPa","nPressureDigits","CombinedUncertainty"]}],"eExpPurpose":"Principal objective of the work"},{"NumValues":[{"VariableValue":[],"tml_elements":["PropertyValue"],"PropertyValue":[{"nPropDigits":3,"nPropNumber":1,"tml_elements":["nPropNumber","nPropValue","nPropDigits","CombinedUncertainty"],"CombinedUncertainty":{"nCombUncertAssessNum":1,"nCombExpandUncertValue":10.2,"tml_elements":["nCombUncertAssessNum","nCombExpandUncertValue"]},"nPropValue":75.2}]}],"sCompiler":"AB","dateDateAdded":"3/3/2016","eExpPurpose":"Principal objective of the work","Property":[{"Property-MethodID":{"tml_elements":["PropertyGroup"],"PropertyGroup":{"tml_elements":["ReactionStateChangeProp"],"ReactionStateChangeProp":{"ePropName":"Molar enthalpy of reaction, kJ/mol","sMethodName":"DSC","tml_elements":["ePropName","sMethodName"]}}},"nTemperatureDigits":5,"nTemperature-K":"298.15","CombinedUncertainty":{"tml_elements":["nCombUncertAssessNum","sCombUncertEvaluator","eCombUncertEvalMethod","nCombUncertLevOfConfid"],"eCombUncertEvalMethod":"Propagation of evaluated standard uncertainties","nCombUncertLevOfConfid":95,"nCombUncertAssessNum":1,"sCombUncertEvaluator":"Data file compiler"},"nPressure-kPa":"100","nPressureDigits":1,"nPropNumber":1,"tml_elements":["nPropNumber","Property-MethodID","nTemperature-K","nTemperatureDigits","nPressure-kPa","nPressureDigits","CombinedUncertainty"]}],"sContributor":"TRC","nReactionDataNumber":2,"eReactionType":"Other reactions","tml_elements":["nReactionDataNumber","Participant","eExpPurpose","sCompiler","sContributor","dateDateAdded","eReactionType","Property","NumValues"],"Participant":[{"ePhase":"Crystal","tml_elements":["RegNum","nSampleNm","nStoichiometricCoef","ePhase"],"nSampleNm":2,"nStoichiometricCoef":"2","RegNum":{"tml_elements":["nOrgNum"],"nOrgNum":6}},{"ePhase":"Crystal","tml_elements":["RegNum","nSampleNm","nStoichiometricCoef","ePhase"],"RegNum":{"tml_elements":["nOrgNum"],"nOrgNum":7},"nSampleNm":1,"nStoichiometricCoef":"-1"},{"ePhase":"Gas","tml_elements":["RegNum","nStoichiometricCoef","ePhase"],"RegNum":{"nOrgNum":4,"tml_elements":["nOrgNum"]},"nStoichiometricCoef":"1"}]},{"eReactionType":"Other reactions","tml_elements":["nReactionDataNumber","Participant","eExpPurpose","sCompiler","sContributor","dateDateAdded","eReactionType","Property","NumValues"],"Participant":[{"ePhase":"Crystal","tml_elements":["RegNum","nSampleNm","nStoichiometricCoef","ePhase"],"RegNum":{"tml_elements":["nOrgNum"],"nOrgNum":6},"nSampleNm":2,"nStoichiometricCoef":"2"},{"nStoichiometricCoef":"-1","nSampleNm":1,"RegNum":{"nOrgNum":7,"tml_elements":["nOrgNum"]},"tml_elements":["RegNum","nSampleNm","nStoichiometricCoef","ePhase"],"ePhase":"Crystal"},{"nStoichiometricCoef":"1","RegNum":{"nOrgNum":4,"tml_elements":["nOrgNum"]},"ePhase":"Gas","tml_elements":["RegNum","nStoichiometricCoef","ePhase"]}],"sContributor":"TRC","nReactionDataNumber":3,"eExpPurpose":"Principal objective of the work","Property":[{"nPropNumber":1,"tml_elements":["nPropNumber","Property-MethodID","nTemperature-K","nTemperatureDigits","nPressure-kPa","nPressureDigits","CombinedUncertainty"],"Property-MethodID":{"tml_elements":["PropertyGroup"],"PropertyGroup":{"tml_elements":["ReactionStateChangeProp"],"ReactionStateChangeProp":{"ePropName":"Molar enthalpy of reaction, kJ/mol","sMethodName":"Calvet drop calorimeter","tml_elements":["ePropName","sMethodName"]}}},"nTemperatureDigits":5,"CombinedUncertainty":{"nCombUncertAssessNum":1,"sCombUncertEvaluator":"Data file compiler","tml_elements":["nCombUncertAssessNum","sCombUncertEvaluator","eCombUncertEvalMethod","nCombUncertLevOfConfid"],"eCombUncertEvalMethod":"Propagation of evaluated standard uncertainties","nCombUncertLevOfConfid":95},"nTemperature-K":"298.15","nPressureDigits":1,"nPressure-kPa":"100"}],"NumValues":[{"PropertyValue":[{"tml_elements":["nPropNumber","nPropValue","nPropDigits","CombinedUncertainty"],"nPropNumber":1,"nPropDigits":3,"nPropValue":77.4,"CombinedUncertainty":{"tml_elements":["nCombUncertAssessNum","nCombExpandUncertValue"],"nCombExpandUncertValue":8.4,"nCombUncertAssessNum":1}}],"tml_elements":["PropertyValue"],"VariableValue":[]}],"sCompiler":"AB","dateDateAdded":"3/3/2016"}],"PureOrMixtureData":[{"eExpPurpose":"Principal objective of the work","Property":[{"Property-MethodID":{"PropertyGroup":{"VolumetricProp":{"tml_elements":["ePropName","eMethodName"],"ePropName":"Mass density, kg/m3","eMethodName":"X-ray diffraction"},"tml_elements":["VolumetricProp"]},"tml_elements":["PropertyGroup"]},"CombinedUncertainty":{"sCombUncertEvaluator":"Data file compiler","nCombUncertAssessNum":1,"eCombUncertEvalMethod":"Propagation of evaluated standard uncertainties","nCombUncertLevOfConfid":95,"tml_elements":["nCombUncertAssessNum","sCombUncertEvaluator","eCombUncertEvalMethod","nCombUncertLevOfConfid"]},"nPropNumber":1,"PropPhaseID":{"ePropPhase":"Crystal","tml_elements":["ePropPhase"]},"tml_elements":["nPropNumber","Property-MethodID","PropPhaseID","ePresentation","CombinedUncertainty"],"ePresentation":"Direct value, X"}],"dateDateAdded":"3/2/2016","nPureOrMixtureDataNumber":1,"sCompiler":"AB","NumValues":[{"PropertyValue":[{"CombinedUncertainty":{"nCombUncertAssessNum":1,"nCombExpandUncertValue":7,"tml_elements":["nCombUncertAssessNum","nCombExpandUncertValue"]},"nPropValue":1424.1,"nPropNumber":1,"nPropDigits":5,"tml_elements":["nPropNumber","nPropValue","nPropDigits","CombinedUncertainty"]}],"tml_elements":["VariableValue","PropertyValue"],"VariableValue":[{"nVarValue":296,"nVarNumber":1,"tml_elements":["nVarNumber","nVarValue","nVarDigits"],"nVarDigits":3},{"nVarDigits":6,"tml_elements":["nVarNumber","nVarValue","nVarDigits"],"nVarNumber":2,"nVarValue":101.325}]}],"tml_elements":["nPureOrMixtureDataNumber","Component","eExpPurpose","sCompiler","sContributor","dateDateAdded","Property","PhaseID","Variable","NumValues"],"PhaseID":[{"tml_elements":["ePhase"],"ePhase":"Crystal"}],"Component":[{"tml_elements":["RegNum","nSampleNm"],"nSampleNm":2,"RegNum":{"tml_elements":["nOrgNum"],"nOrgNum":6}}],"sContributor":"TRC","Variable":[{"tml_elements":["nVarNumber","VariableID","VarPhaseID"],"nVarNumber":1,"VarPhaseID":{"tml_elements":["eVarPhase"],"eVarPhase":"Crystal"},"VariableID":{"VariableType":{"eTemperature":"Temperature, K","tml_elements":["eTemperature"]},"tml_elements":["VariableType"]}},{"VariableID":{"tml_elements":["VariableType"],"VariableType":{"ePressure":"Pressure, kPa","tml_elements":["ePressure"]}},"VarPhaseID":{"tml_elements":["eVarPhase"],"eVarPhase":"Crystal"},"nVarNumber":2,"tml_elements":["nVarNumber","VariableID","VarPhaseID"]}]},{"sContributor":"TRC","Component":[{"RegNum":{"tml_elements":["nOrgNum"],"nOrgNum":6},"nSampleNm":2,"tml_elements":["RegNum","nSampleNm"]}],"PhaseID":[{"tml_elements":["ePhase"],"ePhase":"Crystal"},{"tml_elements":["ePhase"],"ePhase":"Liquid"},{"tml_elements":["ePhase"],"ePhase":"Air at 1 atmosphere"}],"tml_elements":["nPureOrMixtureDataNumber","Component","eExpPurpose","sCompiler","sContributor","dateDateAdded","Property","PhaseID","NumValues"],"NumValues":[{"VariableValue":[],"PropertyValue":[{"CombinedUncertainty":{"tml_elements":["nCombUncertAssessNum","nCombExpandUncertValue"],"nCombExpandUncertValue":0.8,"nCombUncertAssessNum":1},"nPropValue":503.5,"tml_elements":["nPropNumber","nPropValue","nPropDigits","CombinedUncertainty"],"nPropNumber":1,"nPropDigits":4}],"tml_elements":["PropertyValue"]}],"sCompiler":"AB","nPureOrMixtureDataNumber":2,"dateDateAdded":"3/2/2016","Property":[{"CombinedUncertainty":{"nCombUncertLevOfConfid":95,"eCombUncertEvalMethod":"Propagation of evaluated standard uncertainties","tml_elements":["nCombUncertAssessNum","sCombUncertEvaluator","eCombUncertEvalMethod","nCombUncertLevOfConfid"],"sCombUncertEvaluator":"Data file compiler","nCombUncertAssessNum":1},"Property-MethodID":{"tml_elements":["PropertyGroup"],"PropertyGroup":{"tml_elements":["PhaseTransition"],"PhaseTransition":{"tml_elements":["ePropName","sMethodName"],"ePropName":"Triple point temperature, K","sMethodName":"DSC"}}},"nPropNumber":1,"PropPhaseID":{"tml_elements":["ePropPhase"],"ePropPhase":"Crystal"},"tml_elements":["nPropNumber","Property-MethodID","PropPhaseID","ePresentation","CombinedUncertainty"],"ePresentation":"Direct value, X"}],"eExpPurpose":"Principal objective of the work"},{"Property":[{"Property-MethodID":{"tml_elements":["PropertyGroup"],"PropertyGroup":{"PhaseTransition":{"tml_elements":["ePropName","sMethodName"],"sMethodName":"DSC","ePropName":"Molar enthalpy of transition or fusion, kJ/mol"},"tml_elements":["PhaseTransition"]}},"CombinedUncertainty":{"sCombUncertEvaluator":"Data file compiler","nCombUncertAssessNum":1,"eCombUncertEvalMethod":"Propagation of evaluated standard uncertainties","nCombUncertLevOfConfid":95,"tml_elements":["nCombUncertAssessNum","sCombUncertEvaluator","eCombUncertEvalMethod","nCombUncertLevOfConfid"]},"nPropNumber":1,"PropPhaseID":{"tml_elements":["ePropPhase"],"ePropPhase":"Crystal"},"tml_elements":["nPropNumber","Property-MethodID","PropPhaseID","ePresentation","CombinedUncertainty"],"ePresentation":"Direct value, X"}],"eExpPurpose":"Principal objective of the work","NumValues":[{"VariableValue":[],"PropertyValue":[{"nPropNumber":1,"nPropDigits":5,"tml_elements":["nPropNumber","nPropValue","nPropDigits","CombinedUncertainty"],"CombinedUncertainty":{"nCombExpandUncertValue":0.480688032,"tml_elements":["nCombUncertAssessNum","nCombExpandUncertValue"],"nCombUncertAssessNum":1},"nPropValue":17.4770156968}],"tml_elements":["PropertyValue"]}],"nPureOrMixtureDataNumber":3,"dateDateAdded":"3/2/2016","sCompiler":"AB","Component":[{"nSampleNm":2,"RegNum":{"nOrgNum":6,"tml_elements":["nOrgNum"]},"tml_elements":["RegNum","nSampleNm"]}],"tml_elements":["nPureOrMixtureDataNumber","Component","eExpPurpose","sCompiler","sContributor","dateDateAdded","Property","PhaseID","NumValues"],"PhaseID":[{"tml_elements":["ePhase"],"ePhase":"Crystal"},{"ePhase":"Liquid","tml_elements":["ePhase"]},{"ePhase":"Air at 1 atmosphere","tml_elements":["ePhase"]}],"sContributor":"TRC"},{"Component":[{"RegNum":{"nOrgNum":6,"tml_elements":["nOrgNum"]},"nSampleNm":2,"tml_elements":["RegNum","nSampleNm"]}],"tml_elements":["nPureOrMixtureDataNumber","Component","eExpPurpose","sCompiler","sContributor","dateDateAdded","Property","PhaseID","Variable","NumValues"],"PhaseID":[{"ePhase":"Crystal","tml_elements":["ePhase"]},{"ePhase":"Gas","tml_elements":["ePhase"]}],"sContributor":"TRC","Variable":[{"VariableID":{"VariableType":{"eTemperature":"Temperature, K","tml_elements":["eTemperature"]},"tml_elements":["VariableType"]},"tml_elements":["nVarNumber","VariableID","VarPhaseID"],"VarPhaseID":{"tml_elements":["eVarPhase"],"eVarPhase":"Crystal"},"nVarNumber":1}],"Property":[{"Property-MethodID":{"tml_elements":["PropertyGroup"],"PropertyGroup":{"PhaseTransition":{"ePropName":"Molar enthalpy of vaporization or sublimation, kJ/mol","eMethodName":"Static calorimetry","tml_elements":["ePropName","eMethodName"]},"tml_elements":["PhaseTransition"]}},"CombinedUncertainty":{"tml_elements":["nCombUncertAssessNum","sCombUncertEvaluator","eCombUncertEvalMethod","nCombUncertLevOfConfid"],"nCombUncertLevOfConfid":95,"eCombUncertEvalMethod":"Propagation of evaluated standard uncertainties","nCombUncertAssessNum":1,"sCombUncertEvaluator":"Data file compiler"},"ePresentation":"Direct value, X","tml_elements":["nPropNumber","Property-MethodID","PropPhaseID","ePresentation","CombinedUncertainty"],"PropPhaseID":{"ePropPhase":"Crystal","tml_elements":["ePropPhase"]},"nPropNumber":1}],"eExpPurpose":"Principal objective of the work","NumValues":[{"tml_elements":["VariableValue","PropertyValue"],"PropertyValue":[{"nPropValue":114.4,"CombinedUncertainty":{"nCombExpandUncertValue":1.4,"tml_elements":["nCombUncertAssessNum","nCombExpandUncertValue"],"nCombUncertAssessNum":1},"nPropNumber":1,"nPropDigits":4,"tml_elements":["nPropNumber","nPropValue","nPropDigits","CombinedUncertainty"]}],"VariableValue":[{"nVarDigits":5,"tml_elements":["nVarNumber","nVarValue","nVarDigits"],"nVarNumber":1,"nVarValue":298.15}]}],"dateDateAdded":"3/2/2016","nPureOrMixtureDataNumber":4,"sCompiler":"AB"},{"Component":[{"nSampleNm":2,"RegNum":{"nOrgNum":6,"tml_elements":["nOrgNum"]},"tml_elements":["RegNum","nSampleNm"]}],"PhaseID":[{"ePhase":"Crystal","tml_elements":["ePhase"]}],"tml_elements":["nPureOrMixtureDataNumber","Component","eExpPurpose","sCompiler","sContributor","dateDateAdded","Property","PhaseID","Constraint","Variable","NumValues"],"Variable":[{"VariableID":{"tml_elements":["VariableType"],"VariableType":{"eTemperature":"Temperature, K","tml_elements":["eTemperature"]}},"nVarNumber":1,"VarPhaseID":{"tml_elements":["eVarPhase"],"eVarPhase":"Crystal"},"tml_elements":["nVarNumber","VariableID","VarPhaseID"]}],"sContributor":"TRC","Constraint":[{"nConstraintValue":101.325,"tml_elements":["nConstraintNumber","ConstraintID","ConstraintPhaseID","nConstraintValue","nConstrDigits"],"ConstraintID":{"ConstraintType":{"ePressure":"Pressure, kPa","tml_elements":["ePressure"]},"tml_elements":["ConstraintType"]},"nConstraintNumber":1,"nConstrDigits":6,"ConstraintPhaseID":{"tml_elements":["eConstraintPhase"],"eConstraintPhase":"Crystal"}}],"Property":[{"CombinedUncertainty":{"nCombUncertAssessNum":1,"sCombUncertEvaluator":"Data file compiler","tml_elements":["nCombUncertAssessNum","sCombUncertEvaluator","eCombUncertEvalMethod","nCombUncertLevOfConfid"],"nCombUncertLevOfConfid":95,"eCombUncertEvalMethod":"Propagation of evaluated standard uncertainties"},"Property-MethodID":{"PropertyGroup":{"tml_elements":["HeatCapacityAndDerivedProp"],"HeatCapacityAndDerivedProp":{"ePropName":"Molar heat capacity at constant pressure, J/K/mol","eMethodName":"Small sample (50 mg) DSC","tml_elements":["ePropName","eMethodName"]}},"tml_elements":["PropertyGroup"]},"tml_elements":["nPropNumber","Property-MethodID","PropPhaseID","ePresentation","CombinedUncertainty"],"ePresentation":"Direct value, X","nPropNumber":1,"PropPhaseID":{"tml_elements":["ePropPhase"],"ePropPhase":"Crystal"}}],"eExpPurpose":"Principal objective of the work","NumValues":[{"tml_elements":["VariableValue","PropertyValue"],"PropertyValue":[{"nPropValue":112,"CombinedUncertainty":{"nCombUncertAssessNum":1,"tml_elements":["nCombUncertAssessNum","nCombExpandUncertValue"],"nCombExpandUncertValue":7.7},"tml_elements":["nPropNumber","nPropValue","nPropDigits","CombinedUncertainty"],"nPropDigits":4,"nPropNumber":1}],"VariableValue":[{"nVarValue":298.15,"nVarNumber":1,"nVarDigits":5,"tml_elements":["nVarNumber","nVarValue","nVarDigits"]}]},{"VariableValue":[{"tml_elements":["nVarNumber","nVarValue","nVarDigits"],"nVarDigits":5,"nVarNumber":1,"nVarValue":303.15}],"tml_elements":["VariableValue","PropertyValue"],"PropertyValue":[{"nPropNumber":1,"nPropDigits":4,"tml_elements":["nPropNumber","nPropValue","nPropDigits","CombinedUncertainty"],"nPropValue":112.4,"CombinedUncertainty":{"nCombUncertAssessNum":1,"nCombExpandUncertValue":7.9,"tml_elements":["nCombUncertAssessNum","nCombExpandUncertValue"]}}]},{"VariableValue":[{"nVarValue":308.15,"nVarNumber":1,"tml_elements":["nVarNumber","nVarValue","nVarDigits"],"nVarDigits":5}],"tml_elements":["VariableValue","PropertyValue"],"PropertyValue":[{"CombinedUncertainty":{"nCombUncertAssessNum":1,"tml_elements":["nCombUncertAssessNum","nCombExpandUncertValue"],"nCombExpandUncertValue":7.9},"nPropValue":112.9,"nPropNumber":1,"nPropDigits":4,"tml_elements":["nPropNumber","nPropValue","nPropDigits","CombinedUncertainty"]}]},{"VariableValue":[{"tml_elements":["nVarNumber","nVarValue","nVarDigits"],"nVarDigits":5,"nVarNumber":1,"nVarValue":313.15}],"tml_elements":["VariableValue","PropertyValue"],"PropertyValue":[{"nPropNumber":1,"nPropDigits":4,"tml_elements":["nPropNumber","nPropValue","nPropDigits","CombinedUncertainty"],"nPropValue":112.6,"CombinedUncertainty":{"tml_elements":["nCombUncertAssessNum","nCombExpandUncertValue"],"nCombExpandUncertValue":8.9,"nCombUncertAssessNum":1}}]},{"tml_elements":["VariableValue","PropertyValue"],"PropertyValue":[{"nPropNumber":1,"nPropDigits":4,"tml_elements":["nPropNumber","nPropValue","nPropDigits","CombinedUncertainty"],"nPropValue":113.4,"CombinedUncertainty":{"nCombUncertAssessNum":1,"nCombExpandUncertValue":8.6,"tml_elements":["nCombUncertAssessNum","nCombExpandUncertValue"]}}],"VariableValue":[{"tml_elements":["nVarNumber","nVarValue","nVarDigits"],"nVarDigits":5,"nVarNumber":1,"nVarValue":318.15}]},{"VariableValue":[{"nVarValue":323.15,"nVarNumber":1,"nVarDigits":5,"tml_elements":["nVarNumber","nVarValue","nVarDigits"]}],"tml_elements":["VariableValue","PropertyValue"],"PropertyValue":[{"nPropValue":114.3,"CombinedUncertainty":{"nCombExpandUncertValue":8.6,"tml_elements":["nCombUncertAssessNum","nCombExpandUncertValue"],"nCombUncertAssessNum":1},"nPropDigits":4,"nPropNumber":1,"tml_elements":["nPropNumber","nPropValue","nPropDigits","CombinedUncertainty"]}]},{"VariableValue":[{"nVarValue":328.15,"tml_elements":["nVarNumber","nVarValue","nVarDigits"],"nVarDigits":5,"nVarNumber":1}],"PropertyValue":[{"nPropValue":115.3,"CombinedUncertainty":{"nCombUncertAssessNum":1,"tml_elements":["nCombUncertAssessNum","nCombExpandUncertValue"],"nCombExpandUncertValue":8.6},"nPropNumber":1,"nPropDigits":4,"tml_elements":["nPropNumber","nPropValue","nPropDigits","CombinedUncertainty"]}],"tml_elements":["VariableValue","PropertyValue"]},{"tml_elements":["VariableValue","PropertyValue"],"PropertyValue":[{"tml_elements":["nPropNumber","nPropValue","nPropDigits","CombinedUncertainty"],"nPropDigits":4,"nPropNumber":1,"CombinedUncertainty":{"nCombUncertAssessNum":1,"tml_elements":["nCombUncertAssessNum","nCombExpandUncertValue"],"nCombExpandUncertValue":8.6},"nPropValue":116.5}],"VariableValue":[{"nVarNumber":1,"tml_elements":["nVarNumber","nVarValue","nVarDigits"],"nVarDigits":5,"nVarValue":333.15}]}],"sCompiler":"AB","dateDateAdded":"3/2/2016","nPureOrMixtureDataNumber":5},{"eExpPurpose":"Principal objective of the work","Property":[{"nRefPressureDigits":3,"Property-MethodID":{"PropertyGroup":{"tml_elements":["HeatCapacityAndDerivedProp"],"HeatCapacityAndDerivedProp":{"ePropName":"Molar enthalpy, kJ/mol","eMethodName":"Drop calorimetry","tml_elements":["ePropName","eMethodName"]}},"tml_elements":["PropertyGroup"]},"RefPhaseID":{"eRefPhase":"Crystal","tml_elements":["eRefPhase"]},"nRefTemp":"298.15","ePresentation":"Difference with the reference state, X-X(REF)","nRefPressure":"101","eRefStateType":"Reference phase with the same composition at fixed temperature and pressure","CombinedUncertainty":{"nCombUncertAssessNum":1,"sCombUncertEvaluator":"Data file compiler","tml_elements":["nCombUncertAssessNum","sCombUncertEvaluator","eCombUncertEvalMethod","nCombUncertLevOfConfid"],"nCombUncertLevOfConfid":95,"eCombUncertEvalMethod":"Propagation of evaluated standard uncertainties"},"tml_elements":["nPropNumber","Property-MethodID","PropPhaseID","ePresentation","eRefStateType","nRefTemp","nRefTempDigits","nRefPressure","nRefPressureDigits","RefPhaseID","CombinedUncertainty"],"PropPhaseID":{"ePropPhase":"Gas","tml_elements":["ePropPhase"]},"nPropNumber":1,"nRefTempDigits":5}],"NumValues":[{"VariableValue":[{"nVarValue":478.07,"nVarDigits":5,"tml_elements":["nVarNumber","nVarValue","nVarDigits"],"nVarNumber":1},{"nVarDigits":6,"tml_elements":["nVarNumber","nVarValue","nVarDigits"],"nVarNumber":2,"nVarValue":101.325}],"PropertyValue":[{"nPropValue":134.6,"CombinedUncertainty":{"tml_elements":["nCombUncertAssessNum","nCombExpandUncertValue"],"nCombExpandUncertValue":3.1,"nCombUncertAssessNum":1},"tml_elements":["nPropNumber","nPropValue","nPropDigits","CombinedUncertainty"],"nPropNumber":1,"nPropDigits":4}],"tml_elements":["VariableValue","PropertyValue"]}],"nPureOrMixtureDataNumber":6,"dateDateAdded":"3/2/2016","sCompiler":"AB","Component":[{"nSampleNm":2,"RegNum":{"nOrgNum":6,"tml_elements":["nOrgNum"]},"tml_elements":["RegNum","nSampleNm"]}],"Variable":[{"VariableID":{"tml_elements":["VariableType"],"VariableType":{"eTemperature":"Temperature, K","tml_elements":["eTemperature"]}},"nVarNumber":1,"VarPhaseID":{"eVarPhase":"Gas","tml_elements":["eVarPhase"]},"tml_elements":["nVarNumber","VariableID","VarPhaseID"]},{"VariableID":{"VariableType":{"tml_elements":["ePressure"],"ePressure":"Pressure, kPa"},"tml_elements":["VariableType"]},"tml_elements":["nVarNumber","VariableID","VarPhaseID"],"nVarNumber":2,"VarPhaseID":{"eVarPhase":"Gas","tml_elements":["eVarPhase"]}}],"tml_elements":["nPureOrMixtureDataNumber","Component","eExpPurpose","sCompiler","sContributor","dateDateAdded","Property","PhaseID","Variable","NumValues"],"PhaseID":[{"tml_elements":["ePhase"],"ePhase":"Gas"}],"sContributor":"TRC"},{"sContributor":"TRC","Variable":[{"tml_elements":["nVarNumber","VariableID","VarPhaseID"],"nVarNumber":1,"VarPhaseID":{"eVarPhase":"Crystal","tml_elements":["eVarPhase"]},"VariableID":{"VariableType":{"eTemperature":"Temperature, K","tml_elements":["eTemperature"]},"tml_elements":["VariableType"]}},{"VariableID":{"VariableType":{"tml_elements":["ePressure"],"ePressure":"Pressure, kPa"},"tml_elements":["VariableType"]},"tml_elements":["nVarNumber","VariableID","VarPhaseID"],"VarPhaseID":{"eVarPhase":"Crystal","tml_elements":["eVarPhase"]},"nVarNumber":2}],"tml_elements":["nPureOrMixtureDataNumber","Component","eExpPurpose","sCompiler","sContributor","dateDateAdded","Property","PhaseID","Variable","NumValues"],"PhaseID":[{"tml_elements":["ePhase"],"ePhase":"Crystal"}],"Component":[{"tml_elements":["RegNum","nSampleNm"],"nSampleNm":1,"RegNum":{"nOrgNum":7,"tml_elements":["nOrgNum"]}}],"nPureOrMixtureDataNumber":7,"dateDateAdded":"3/2/2016","sCompiler":"AB","NumValues":[{"PropertyValue":[{"nPropDigits":5,"nPropNumber":1,"tml_elements":["nPropNumber","nPropValue","nPropDigits","CombinedUncertainty"],"CombinedUncertainty":{"nCombUncertAssessNum":1,"tml_elements":["nCombUncertAssessNum","nCombExpandUncertValue"],"nCombExpandUncertValue":7.3},"nPropValue":1489.4}],"tml_elements":["VariableValue","PropertyValue"],"VariableValue":[{"nVarNumber":1,"tml_elements":["nVarNumber","nVarValue","nVarDigits"],"nVarDigits":2,"nVarValue":150},{"nVarValue":101.325,"nVarNumber":2,"tml_elements":["nVarNumber","nVarValue","nVarDigits"],"nVarDigits":6}]}],"Property":[{"ePresentation":"Direct value, X","tml_elements":["nPropNumber","Property-MethodID","PropPhaseID","ePresentation","CombinedUncertainty"],"PropPhaseID":{"tml_elements":["ePropPhase"],"ePropPhase":"Crystal"},"Property-MethodID":{"tml_elements":["PropertyGroup"],"PropertyGroup":{"VolumetricProp":{"ePropName":"Mass density, kg/m3","eMethodName":"X-ray diffraction","tml_elements":["ePropName","eMethodName"]},"tml_elements":["VolumetricProp"]}},"nPropNumber":1,"CombinedUncertainty":{"nCombUncertAssessNum":1,"sCombUncertEvaluator":"Data file compiler","tml_elements":["nCombUncertAssessNum","sCombUncertEvaluator","eCombUncertEvalMethod","nCombUncertLevOfConfid"],"eCombUncertEvalMethod":"Propagation of evaluated standard uncertainties","nCombUncertLevOfConfid":95}}],"eExpPurpose":"Principal objective of the work"}],"THERMOML_MD5_CHECKSUM":"977616c5ca907d153395fb125f3fd88a","Compound":[{"sCommonName":["sulfuric acid"],"tml_elements":["RegNum","sStandardInChI","sStandardInChIKey","sCommonName","sFormulaMolec"],"sFormulaMolec":"H2O4S","sStandardInChI":"InChI=1S/H2O4S/c1-5(2,3)4/h(H2,1,2,3,4)","RegNum":{"tml_elements":["nOrgNum"],"nOrgNum":1},"sStandardInChIKey":"QAOWNCQODCNURD-UHFFFAOYSA-N"},{"sStandardInChI":"InChI=1S/CO2/c2-1-3","RegNum":{"tml_elements":["nOrgNum"],"nOrgNum":2},"tml_elements":["RegNum","sStandardInChI","sStandardInChIKey","sCommonName","sFormulaMolec"],"sCommonName":["carbon dioxide"],"sFormulaMolec":"CO2","sStandardInChIKey":"CURLTUGMZLYLDI-UHFFFAOYSA-N"},{"tml_elements":["RegNum","sStandardInChI","sStandardInChIKey","sCommonName","sFormulaMolec"],"sCommonName":["nitrogen"],"sFormulaMolec":"N2","sStandardInChIKey":"IJGRMHOSHXDMSA-UHFFFAOYSA-N","RegNum":{"tml_elements":["nOrgNum"],"nOrgNum":3},"sStandardInChI":"InChI=1S/N2/c1-2"},{"sStandardInChIKey":"XLYOFNOQVPJJNP-UHFFFAOYSA-N","RegNum":{"nOrgNum":4,"tml_elements":["nOrgNum"]},"sStandardInChI":"InChI=1S/H2O/h1H2","tml_elements":["RegNum","sStandardInChI","sStandardInChIKey","sCommonName","sFormulaMolec"],"sCommonName":["water"],"sFormulaMolec":"H2O"},{"sCommonName":["oxygen"],"tml_elements":["RegNum","sStandardInChI","sStandardInChIKey","sCommonName","sFormulaMolec"],"sFormulaMolec":"O2","sStandardInChIKey":"MYMOFIZGZYHOMD-UHFFFAOYSA-N","sStandardInChI":"InChI=1S/O2/c1-2","RegNum":{"nOrgNum":5,"tml_elements":["nOrgNum"]}},{"RegNum":{"tml_elements":["nOrgNum"],"nOrgNum":6},"sStandardInChI":"InChI=1S/C3H4N2S/c6-3-4-1-2-5-3/h1-2H,(H2,4,5,6)","sStandardInChIKey":"OXFSTTJBVAAALW-UHFFFAOYSA-N","sFormulaMolec":"C3H4N2S","Sample":[{"purity":[{"nPurityMassDigits":3,"tml_elements":["nStep","nPurityMass","nPurityMassDigits","eAnalMeth"],"nStep":1,"nPurityMass":98.9,"eAnalMeth":["Stated by supplier"]},{"nStep":2,"tml_elements":["nStep","ePurifMethod"],"ePurifMethod":["Sublimation"]},{"nStep":3,"tml_elements":["nStep","nPurityMass","nPurityMassDigits","eAnalMeth"],"nPurityMassDigits":3,"eAnalMeth":["Gas chromatography"],"nPurityMass":99.9}],"tml_elements":["nSampleNm","eSource","purity"],"nSampleNm":1,"eSource":"Commercial source"},{"eSource":"Commercial source","nSampleNm":2,"purity":[{"nPurityMass":98.9,"eAnalMeth":["Stated by supplier"],"nPurityMassDigits":3,"tml_elements":["nStep","nPurityMass","nPurityMassDigits","eAnalMeth"],"nStep":1},{"ePurifMethod":["Crystallization from solution","Sublimation"],"nStep":2,"tml_elements":["nStep","ePurifMethod","ePurifMethod"]}],"tml_elements":["nSampleNm","eSource","purity"]}],"sCommonName":["2-mercaptoimidazole","1,3-dihydro-2H-imidazole-2-thione","1,3-dihydroimidazole-2-thione"],"tml_elements":["RegNum","sStandardInChI","sStandardInChIKey","sCommonName","sFormulaMolec","Sample"]},{"sStandardInChI":"InChI=1S/2C3H4N2S.H2O/c2*6-3-4-1-2-5-3;/h2*1-2H,(H2,4,5,6);1H2","RegNum":{"tml_elements":["nOrgNum"],"nOrgNum":7},"sStandardInChIKey":"RURKRUSKFCYAES-UHFFFAOYSA-N","Sample":[{"tml_elements":["nSampleNm","eSource","purity"],"purity":[{"nStep":1,"tml_elements":["nStep","nPurityMass","nPurityMassDigits","eAnalMeth"],"nPurityMassDigits":3,"nPurityMass":98.9,"eAnalMeth":["Stated by supplier"]},{"ePurifMethod":["Crystallization from solution"],"nStep":2,"tml_elements":["nStep","ePurifMethod"]}],"eSource":"Commercial source","nSampleNm":1}],"tml_elements":["RegNum","sStandardInChI","sStandardInChIKey","sCommonName","sFormulaMolec","Sample"],"sCommonName":["2-mercaptoimidazole hemihydrate","1,3-dihydro-2H-imidazole-2-thione hemihydrate","1,3-dihydroimidazole-2-thione hemihydrate"],"sFormulaMolec":"C6H10N4OS2"}],"Citation":{"sPage":"35-48","eType":"journal","sVol":"95","sPubName":"J. Chem. Thermodyn.","yrPubYr":"2016","dateCit":"2020-09-29","sDOI":"10.1016/j.jct.2015.11.010","sTitle":"Structural and energetic characterization of anhydrous and hemihydrated 2-mercaptoimidazole: Calorimetric, X-ray diffraction, and computational studies","sAbstract":"This paper reports an experimental and theoretical study on the structural and energetic characterization of the 2-mercaptoimidazole (2-MI) in the solid and in the gaseous phases. The single crystal X-ray diffraction determinations on the anhydrous and hemihydrate 2-MI forms were carried out at T = (296 +- 2) K and T = (150 +- 2) K, respectively, and suggest that in both forms the 2-MI molecule is closer to the thione conformation, albeit some single bond character is possible. The energy of combustion of the title compound was measured by rotating-bomb combustion calorimetry, being used to derive the corresponding enthalpy of formation in the crystalline-phase. The enthalpy of sublimation of 2-MI, at T = 298.15 K, was obtained from high temperature Calvet microcalorimetry measurements. These two parameters yielded the gas-phase enthalpy of formation, allowing the inherent energetic analysis of the molecule. This result was discussed together with the corresponding predictions for 2-MI and its tautomer, 1,3-dihydro-2H-imidazole-2-thione, by the G3 method. The dehydration reaction of 2-MI  0.5H2O(cr) was also investigated and the corresponding enthalpy of dehydration was determined by Calvet microcalorimetry.","TRCRefID":{"nAuthorn":"0","tml_elements":["yrYrPub","sAuthor1","sAuthor2","nAuthorn"],"sAuthor1":"sil","sAuthor2":"mor","yrYrPub":"2016"},"sKeyword":["Anhydrous/hydrated 2-mercaptoimidazole","Tautomerism","X-ray diffraction","Enthalpy of formation","Enthalpy of sublimation","Heat capacity"],"sAuthor":["Silva, A. L. R.[Ana L.R.]","Morais, V. M. F.[Victor M.F.]","Ribeiro da Silva, M. D. M. C.[Maria D.M.C.]","Simoes, R. G.[Ricardo G.]","Bernardes, C. E. S.[Carlos E.S.]","Piedade, M. F. M.","Minas da Piedade, M. E.[Manuel E.]"],"tml_elements":["TRCRefID","eType","eSourceType","sAuthor","sPubName","yrPubYr","dateCit","sTitle","sAbstract","sKeyword","sDOI","sVol","sPage"],"eSourceType":"Original"},"Version":{"nVersionMajor":2,"nVersionMinor":0,"tml_elements":["nVersionMajor","nVersionMinor"]}}