{"Citation":{"eSourceType":"Original","sKeyword":["Sodium pyruvate","X-ray crystallography","Lattice potential energy","Standard molar enthalpy of formation","Molar enthalpy of dissolution at infinite dilution"],"sAuthor":["Gao, Z.-F.[Zhen-Fei]","Di, Y.-Y.[You-Ying]","Liu, S.-Z.[Su-Zhou]","Lu, D.-F.[Dong-Fei]","Dou, J.-M.[Jian-Min]"],"tml_elements":["TRCRefID","eType","eSourceType","sAuthor","sPubName","yrPubYr","dateCit","sTitle","sAbstract","sKeyword","sDOI","sVol","sPage"],"sTitle":"Crystal structure and thermochemical properties of a novel coordination compound sodium pyruvate C3H3O3Na(s)","sDOI":"10.1016/j.jct.2014.06.029","TRCRefID":{"nAuthorn":"1","tml_elements":["yrYrPub","sAuthor1","sAuthor2","nAuthorn"],"sAuthor2":"di","sAuthor1":"gao","yrYrPub":"2014"},"sAbstract":"A novel coordination compound sodium pyruvate C3H3O3Na(s) is synthesised by a liquid phase reaction. The compound has an obvious bioactivity and can be used as the biological carbon source and the chemical identification of primary and secondary alcohols. It can be also used to determinate transaminase. Elemental analysis and X-ray crystallography are used to characterise the composition and crystal structure of the compound. Single crystal X-ray analysis reveals that the compound is formed by one CH3COCOO  anion and one Na+ cation. An obvious feature of the crystal structure is the formation of the five-membered chelate ring by the coordination of O1 of carboxylate and O3 of keto form with Na+ cation, and it is good for the stability of the compound in structure. The lattice potential energy and ionic volume of the anion are obtained from crystallographic data. In accordance with Hess  law, a reasonable thermochemical cycle is designed according to the practical synthesis reaction of the compound and the standard molar enthalpy of formation of the compound is calculated as an important physical quantity in chemical thermodynamics by use of an isoperibol solution-reaction calorimeter. Molar enthalpies of dissolution of the compound at various molalities are measured at T = 298.15 K in the double-distilled water. According to Pitzer s electrolyte solution theory, molar enthalpy of dissolution of the title compound at infinite dilution is calculated to be DsH1m = (19.81 +- 0.69) kJ  mol 1. The values of relative apparent molar enthalpies (UL) and relative partial molar enthalpies of the solvent ( L1) and the compound ( L2) at different concentrations m/(mol  kg 1) are derived from the experimental values of the enthalpies of dissolution of the compound.","sPubName":"J. Chem. Thermodyn.","yrPubYr":"2014","dateCit":"2020-09-29","sVol":"78","eType":"journal","sPage":"189-196"},"Version":{"nVersionMajor":2,"nVersionMinor":0,"tml_elements":["nVersionMajor","nVersionMinor"]},"tml_elements":["Version","Citation","Compound","PureOrMixtureData","ReactionData"],"PureOrMixtureData":[{"Property":[{"tml_elements":["nPropNumber","Property-MethodID","PropPhaseID","ePresentation","CombinedUncertainty"],"ePresentation":"Direct value, X","nPropNumber":1,"PropPhaseID":{"tml_elements":["ePropPhase"],"ePropPhase":"Crystal"},"Property-MethodID":{"tml_elements":["PropertyGroup"],"PropertyGroup":{"tml_elements":["VolumetricProp"],"VolumetricProp":{"tml_elements":["ePropName","eMethodName"],"ePropName":"Mass density, kg/m3","eMethodName":"X-ray diffraction"}}},"CombinedUncertainty":{"sCombUncertEvaluator":"Data file compiler","nCombUncertAssessNum":1,"nCombUncertLevOfConfid":95,"eCombUncertEvalMethod":"Propagation of evaluated standard uncertainties","tml_elements":["nCombUncertAssessNum","sCombUncertEvaluator","eCombUncertEvalMethod","nCombUncertLevOfConfid"]}}],"eExpPurpose":"Principal objective of the work","nPureOrMixtureDataNumber":1,"dateDateAdded":"12/17/2014","sCompiler":"AB","NumValues":[{"VariableValue":[{"nVarValue":298,"tml_elements":["nVarNumber","nVarValue","nVarDigits"],"nVarDigits":3,"nVarNumber":1},{"nVarValue":101.325,"nVarNumber":2,"nVarDigits":6,"tml_elements":["nVarNumber","nVarValue","nVarDigits"]}],"PropertyValue":[{"tml_elements":["nPropNumber","nPropValue","nPropDigits","CombinedUncertainty"],"nPropDigits":4,"nPropNumber":1,"CombinedUncertainty":{"tml_elements":["nCombUncertAssessNum","nCombExpandUncertValue"],"nCombExpandUncertValue":9,"nCombUncertAssessNum":1},"nPropValue":1749}],"tml_elements":["VariableValue","PropertyValue"]}],"tml_elements":["nPureOrMixtureDataNumber","Component","eExpPurpose","sCompiler","sContributor","dateDateAdded","Property","PhaseID","Variable","NumValues"],"PhaseID":[{"tml_elements":["ePhase"],"ePhase":"Crystal"}],"Component":[{"RegNum":{"tml_elements":["nOrgNum"],"nOrgNum":5},"nSampleNm":1,"tml_elements":["RegNum","nSampleNm"]}],"sContributor":"TRC","Variable":[{"nVarNumber":1,"VarPhaseID":{"tml_elements":["eVarPhase"],"eVarPhase":"Crystal"},"tml_elements":["nVarNumber","VariableID","VarPhaseID"],"VariableID":{"tml_elements":["VariableType"],"VariableType":{"eTemperature":"Temperature, K","tml_elements":["eTemperature"]}}},{"VariableID":{"tml_elements":["VariableType"],"VariableType":{"tml_elements":["ePressure"],"ePressure":"Pressure, kPa"}},"VarPhaseID":{"tml_elements":["eVarPhase"],"eVarPhase":"Crystal"},"nVarNumber":2,"tml_elements":["nVarNumber","VariableID","VarPhaseID"]}]},{"eExpPurpose":"Principal objective of the work","Property":[{"tml_elements":["nPropNumber","Property-MethodID","PropPhaseID","ePresentation","eRefStateType","RefPhaseID","Solvent","CombinedUncertainty"],"ePresentation":"Difference with the reference state, X-X(REF)","nPropNumber":1,"PropPhaseID":{"ePropPhase":"Liquid","tml_elements":["ePropPhase"]},"Solvent":{"RegNum":[{"nOrgNum":6,"tml_elements":["nOrgNum"]}],"tml_elements":["RegNum"]},"CombinedUncertainty":{"tml_elements":["nCombUncertAssessNum","sCombUncertEvaluator","eCombUncertEvalMethod","nCombUncertLevOfConfid"],"nCombUncertLevOfConfid":95,"eCombUncertEvalMethod":"Propagation of evaluated standard uncertainties","nCombUncertAssessNum":1,"sCombUncertEvaluator":"Data file compiler"},"eRefStateType":"Pure solute at the same temperature and pressure","RefPhaseID":{"tml_elements":["eRefPhase"],"eRefPhase":"Crystal"},"Property-MethodID":{"tml_elements":["PropertyGroup"],"PropertyGroup":{"ExcessPartialApparentEnergyProp":{"tml_elements":["ePropName","sMethodName"],"sMethodName":"ISOPERIBOL","ePropName":"Molar enthalpy of solution, kJ/mol"},"tml_elements":["ExcessPartialApparentEnergyProp"]}}}],"NumValues":[{"VariableValue":[{"nVarValue":0.02,"nVarNumber":1,"tml_elements":["nVarNumber","nVarValue","nVarDigits"],"nVarDigits":2},{"nVarValue":298.15,"nVarDigits":5,"tml_elements":["nVarNumber","nVarValue","nVarDigits"],"nVarNumber":2},{"tml_elements":["nVarNumber","nVarValue","nVarDigits"],"nVarDigits":5,"nVarNumber":3,"nVarValue":101.22}],"tml_elements":["VariableValue","PropertyValue"],"PropertyValue":[{"CombinedUncertainty":{"tml_elements":["nCombUncertAssessNum","nCombExpandUncertValue"],"nCombExpandUncertValue":0.161,"nCombUncertAssessNum":1},"nPropValue":12.109,"tml_elements":["nPropNumber","nPropValue","nPropDigits","CombinedUncertainty"],"nPropDigits":5,"nPropNumber":1}]}],"sCompiler":"AB","dateDateAdded":"12/17/2014","nPureOrMixtureDataNumber":2,"Component":[{"nSampleNm":1,"RegNum":{"nOrgNum":5,"tml_elements":["nOrgNum"]},"tml_elements":["RegNum","nSampleNm"]},{"tml_elements":["RegNum","nSampleNm"],"RegNum":{"nOrgNum":6,"tml_elements":["nOrgNum"]},"nSampleNm":1}],"PhaseID":[{"ePhase":"Liquid","tml_elements":["ePhase"]}],"tml_elements":["nPureOrMixtureDataNumber","Component","eExpPurpose","sCompiler","sContributor","dateDateAdded","Property","PhaseID","Variable","NumValues"],"Variable":[{"VariableID":{"VariableType":{"tml_elements":["eComponentComposition"],"eComponentComposition":"Molality, mol/kg"},"tml_elements":["VariableType","RegNum"],"RegNum":{"tml_elements":["nOrgNum"],"nOrgNum":5}},"tml_elements":["nVarNumber","VariableID","VarPhaseID"],"nVarNumber":1,"VarPhaseID":{"tml_elements":["eVarPhase"],"eVarPhase":"Liquid"}},{"tml_elements":["nVarNumber","VariableID","VarPhaseID"],"nVarNumber":2,"VarPhaseID":{"eVarPhase":"Liquid","tml_elements":["eVarPhase"]},"VariableID":{"VariableType":{"tml_elements":["eTemperature"],"eTemperature":"Temperature, K"},"tml_elements":["VariableType"]}},{"VariableID":{"VariableType":{"tml_elements":["ePressure"],"ePressure":"Pressure, kPa"},"tml_elements":["VariableType"]},"tml_elements":["nVarNumber","VariableID","VarPhaseID"],"VarPhaseID":{"eVarPhase":"Liquid","tml_elements":["eVarPhase"]},"nVarNumber":3}],"sContributor":"TRC"},{"PhaseID":[{"tml_elements":["ePhase"],"ePhase":"Liquid"}],"tml_elements":["nPureOrMixtureDataNumber","Component","eExpPurpose","sCompiler","sContributor","dateDateAdded","Property","PhaseID","Constraint","Variable","NumValues"],"Component":[{"tml_elements":["RegNum","nSampleNm"],"RegNum":{"tml_elements":["nOrgNum"],"nOrgNum":5},"nSampleNm":1},{"nSampleNm":1,"RegNum":{"tml_elements":["nOrgNum"],"nOrgNum":6},"tml_elements":["RegNum","nSampleNm"]}],"Constraint":[{"nConstraintValue":298.15,"ConstraintPhaseID":{"tml_elements":["eConstraintPhase"],"eConstraintPhase":"Liquid"},"tml_elements":["nConstraintNumber","ConstraintID","ConstraintPhaseID","nConstraintValue","nConstrDigits"],"ConstraintID":{"tml_elements":["ConstraintType"],"ConstraintType":{"tml_elements":["eTemperature"],"eTemperature":"Temperature, K"}},"nConstraintNumber":1,"nConstrDigits":5},{"ConstraintPhaseID":{"eConstraintPhase":"Liquid","tml_elements":["eConstraintPhase"]},"ConstraintID":{"tml_elements":["ConstraintType"],"ConstraintType":{"ePressure":"Pressure, kPa","tml_elements":["ePressure"]}},"nConstraintNumber":2,"nConstrDigits":5,"tml_elements":["nConstraintNumber","ConstraintID","ConstraintPhaseID","nConstraintValue","nConstrDigits"],"nConstraintValue":101.22}],"Variable":[{"nVarNumber":1,"VarPhaseID":{"eVarPhase":"Liquid","tml_elements":["eVarPhase"]},"tml_elements":["nVarNumber","VariableID","VarPhaseID"],"VariableID":{"RegNum":{"tml_elements":["nOrgNum"],"nOrgNum":5},"VariableType":{"eComponentComposition":"Molality, mol/kg","tml_elements":["eComponentComposition"]},"tml_elements":["VariableType","RegNum"]}}],"sContributor":"TRC","Property":[{"tml_elements":["nPropNumber","Property-MethodID","PropPhaseID","ePresentation","eRefStateType","RefPhaseID","Solvent","CombinedUncertainty"],"ePresentation":"Difference with the reference state, X-X(REF)","nPropNumber":1,"PropPhaseID":{"tml_elements":["ePropPhase"],"ePropPhase":"Liquid"},"eRefStateType":"Pure solute at the same temperature and pressure","Property-MethodID":{"PropertyGroup":{"ExcessPartialApparentEnergyProp":{"sMethodName":"ISOPERIBOL","ePropName":"Molar enthalpy of solution, kJ/mol","tml_elements":["ePropName","sMethodName"]},"tml_elements":["ExcessPartialApparentEnergyProp"]},"tml_elements":["PropertyGroup"]},"RefPhaseID":{"tml_elements":["eRefPhase"],"eRefPhase":"Crystal"},"Solvent":{"tml_elements":["RegNum"],"RegNum":[{"nOrgNum":6,"tml_elements":["nOrgNum"]}]},"CombinedUncertainty":{"nCombUncertAssessNum":1,"sCombUncertEvaluator":"Data file compiler","tml_elements":["nCombUncertAssessNum","sCombUncertEvaluator","eCombUncertEvalMethod","nCombUncertLevOfConfid"],"eCombUncertEvalMethod":"Propagation of evaluated standard uncertainties","nCombUncertLevOfConfid":95}}],"eExpPurpose":"Principal objective of the work","sCompiler":"AB","dateDateAdded":"12/17/2014","nPureOrMixtureDataNumber":3,"NumValues":[{"PropertyValue":[{"nPropNumber":1,"nPropDigits":4,"tml_elements":["nPropNumber","nPropValue","nPropDigits","CombinedUncertainty"],"CombinedUncertainty":{"nCombUncertAssessNum":1,"nCombExpandUncertValue":6.22,"tml_elements":["nCombUncertAssessNum","nCombExpandUncertValue"]},"nPropValue":19.16}],"tml_elements":["VariableValue","PropertyValue"],"VariableValue":[{"nVarDigits":3,"tml_elements":["nVarNumber","nVarValue","nVarDigits"],"nVarNumber":1,"nVarValue":9.35e-05}]},{"tml_elements":["VariableValue","PropertyValue"],"PropertyValue":[{"nPropValue":17.54,"CombinedUncertainty":{"nCombUncertAssessNum":1,"nCombExpandUncertValue":5.09,"tml_elements":["nCombUncertAssessNum","nCombExpandUncertValue"]},"tml_elements":["nPropNumber","nPropValue","nPropDigits","CombinedUncertainty"],"nPropDigits":4,"nPropNumber":1}],"VariableValue":[{"nVarValue":0.0001215,"tml_elements":["nVarNumber","nVarValue","nVarDigits"],"nVarDigits":4,"nVarNumber":1}]},{"PropertyValue":[{"nPropDigits":4,"nPropNumber":1,"tml_elements":["nPropNumber","nPropValue","nPropDigits","CombinedUncertainty"],"nPropValue":15.82,"CombinedUncertainty":{"nCombExpandUncertValue":3.08,"tml_elements":["nCombUncertAssessNum","nCombExpandUncertValue"],"nCombUncertAssessNum":1}}],"tml_elements":["VariableValue","PropertyValue"],"VariableValue":[{"nVarValue":0.0001473,"nVarDigits":4,"tml_elements":["nVarNumber","nVarValue","nVarDigits"],"nVarNumber":1}]},{"VariableValue":[{"nVarValue":0.0001738,"tml_elements":["nVarNumber","nVarValue","nVarDigits"],"nVarDigits":4,"nVarNumber":1}],"PropertyValue":[{"CombinedUncertainty":{"nCombUncertAssessNum":1,"nCombExpandUncertValue":2.41,"tml_elements":["nCombUncertAssessNum","nCombExpandUncertValue"]},"nPropValue":14.84,"nPropDigits":4,"nPropNumber":1,"tml_elements":["nPropNumber","nPropValue","nPropDigits","CombinedUncertainty"]}],"tml_elements":["VariableValue","PropertyValue"]},{"VariableValue":[{"nVarValue":0.0002256,"nVarNumber":1,"nVarDigits":4,"tml_elements":["nVarNumber","nVarValue","nVarDigits"]}],"tml_elements":["VariableValue","PropertyValue"],"PropertyValue":[{"CombinedUncertainty":{"nCombExpandUncertValue":2.03,"tml_elements":["nCombUncertAssessNum","nCombExpandUncertValue"],"nCombUncertAssessNum":1},"nPropValue":14.14,"tml_elements":["nPropNumber","nPropValue","nPropDigits","CombinedUncertainty"],"nPropDigits":4,"nPropNumber":1}]},{"VariableValue":[{"tml_elements":["nVarNumber","nVarValue","nVarDigits"],"nVarDigits":4,"nVarNumber":1,"nVarValue":0.0002729}],"PropertyValue":[{"CombinedUncertainty":{"tml_elements":["nCombUncertAssessNum","nCombExpandUncertValue"],"nCombExpandUncertValue":1.35,"nCombUncertAssessNum":1},"nPropValue":13.53,"nPropDigits":4,"nPropNumber":1,"tml_elements":["nPropNumber","nPropValue","nPropDigits","CombinedUncertainty"]}],"tml_elements":["VariableValue","PropertyValue"]},{"VariableValue":[{"tml_elements":["nVarNumber","nVarValue","nVarDigits"],"nVarDigits":4,"nVarNumber":1,"nVarValue":0.000368}],"tml_elements":["VariableValue","PropertyValue"],"PropertyValue":[{"CombinedUncertainty":{"tml_elements":["nCombUncertAssessNum","nCombExpandUncertValue"],"nCombExpandUncertValue":0.77,"nCombUncertAssessNum":1},"nPropValue":12.77,"tml_elements":["nPropNumber","nPropValue","nPropDigits","CombinedUncertainty"],"nPropNumber":1,"nPropDigits":4}]},{"tml_elements":["VariableValue","PropertyValue"],"PropertyValue":[{"CombinedUncertainty":{"nCombUncertAssessNum":1,"tml_elements":["nCombUncertAssessNum","nCombExpandUncertValue"],"nCombExpandUncertValue":0.43},"nPropValue":12.36,"nPropNumber":1,"nPropDigits":4,"tml_elements":["nPropNumber","nPropValue","nPropDigits","CombinedUncertainty"]}],"VariableValue":[{"nVarValue":0.0004552,"nVarNumber":1,"nVarDigits":4,"tml_elements":["nVarNumber","nVarValue","nVarDigits"]}]},{"VariableValue":[{"nVarNumber":1,"tml_elements":["nVarNumber","nVarValue","nVarDigits"],"nVarDigits":4,"nVarValue":0.0005441}],"PropertyValue":[{"CombinedUncertainty":{"nCombUncertAssessNum":1,"nCombExpandUncertValue":2.24,"tml_elements":["nCombUncertAssessNum","nCombExpandUncertValue"]},"nPropValue":12.16,"tml_elements":["nPropNumber","nPropValue","nPropDigits","CombinedUncertainty"],"nPropDigits":4,"nPropNumber":1}],"tml_elements":["VariableValue","PropertyValue"]},{"tml_elements":["VariableValue","PropertyValue"],"PropertyValue":[{"nPropValue":12.06,"CombinedUncertainty":{"nCombExpandUncertValue":1.05,"tml_elements":["nCombUncertAssessNum","nCombExpandUncertValue"],"nCombUncertAssessNum":1},"tml_elements":["nPropNumber","nPropValue","nPropDigits","CombinedUncertainty"],"nPropDigits":4,"nPropNumber":1}],"VariableValue":[{"tml_elements":["nVarNumber","nVarValue","nVarDigits"],"nVarDigits":4,"nVarNumber":1,"nVarValue":0.0006363}]},{"VariableValue":[{"nVarNumber":1,"nVarDigits":4,"tml_elements":["nVarNumber","nVarValue","nVarDigits"],"nVarValue":0.0007307}],"PropertyValue":[{"CombinedUncertainty":{"nCombUncertAssessNum":1,"tml_elements":["nCombUncertAssessNum","nCombExpandUncertValue"],"nCombExpandUncertValue":0.68},"nPropValue":11.99,"tml_elements":["nPropNumber","nPropValue","nPropDigits","CombinedUncertainty"],"nPropDigits":4,"nPropNumber":1}],"tml_elements":["VariableValue","PropertyValue"]},{"tml_elements":["VariableValue","PropertyValue"],"PropertyValue":[{"nPropValue":11.91,"CombinedUncertainty":{"nCombExpandUncertValue":0.44,"tml_elements":["nCombUncertAssessNum","nCombExpandUncertValue"],"nCombUncertAssessNum":1},"nPropNumber":1,"nPropDigits":4,"tml_elements":["nPropNumber","nPropValue","nPropDigits","CombinedUncertainty"]}],"VariableValue":[{"nVarNumber":1,"nVarDigits":4,"tml_elements":["nVarNumber","nVarValue","nVarDigits"],"nVarValue":0.0008215}]},{"VariableValue":[{"nVarValue":0.0009147,"nVarDigits":4,"tml_elements":["nVarNumber","nVarValue","nVarDigits"],"nVarNumber":1}],"tml_elements":["VariableValue","PropertyValue"],"PropertyValue":[{"nPropValue":11.88,"CombinedUncertainty":{"tml_elements":["nCombUncertAssessNum","nCombExpandUncertValue"],"nCombExpandUncertValue":0.25,"nCombUncertAssessNum":1},"tml_elements":["nPropNumber","nPropValue","nPropDigits","CombinedUncertainty"],"nPropDigits":4,"nPropNumber":1}]},{"VariableValue":[{"nVarValue":0.001095,"nVarDigits":4,"tml_elements":["nVarNumber","nVarValue","nVarDigits"],"nVarNumber":1}],"PropertyValue":[{"nPropDigits":4,"nPropNumber":1,"tml_elements":["nPropNumber","nPropValue","nPropDigits","CombinedUncertainty"],"CombinedUncertainty":{"nCombUncertAssessNum":1,"nCombExpandUncertValue":0.16,"tml_elements":["nCombUncertAssessNum","nCombExpandUncertValue"]},"nPropValue":11.83}],"tml_elements":["VariableValue","PropertyValue"]},{"tml_elements":["VariableValue","PropertyValue"],"PropertyValue":[{"nPropValue":11.8,"CombinedUncertainty":{"nCombExpandUncertValue":0.12,"tml_elements":["nCombUncertAssessNum","nCombExpandUncertValue"],"nCombUncertAssessNum":1},"nPropNumber":1,"nPropDigits":4,"tml_elements":["nPropNumber","nPropValue","nPropDigits","CombinedUncertainty"]}],"VariableValue":[{"nVarValue":0.001273,"nVarDigits":4,"tml_elements":["nVarNumber","nVarValue","nVarDigits"],"nVarNumber":1}]},{"tml_elements":["VariableValue","PropertyValue"],"PropertyValue":[{"CombinedUncertainty":{"nCombExpandUncertValue":0.12,"tml_elements":["nCombUncertAssessNum","nCombExpandUncertValue"],"nCombUncertAssessNum":1},"nPropValue":11.78,"tml_elements":["nPropNumber","nPropValue","nPropDigits","CombinedUncertainty"],"nPropNumber":1,"nPropDigits":4}],"VariableValue":[{"nVarNumber":1,"tml_elements":["nVarNumber","nVarValue","nVarDigits"],"nVarDigits":4,"nVarValue":0.001459}]},{"PropertyValue":[{"CombinedUncertainty":{"nCombUncertAssessNum":1,"tml_elements":["nCombUncertAssessNum","nCombExpandUncertValue"],"nCombExpandUncertValue":0.11},"nPropValue":11.77,"nPropDigits":4,"nPropNumber":1,"tml_elements":["nPropNumber","nPropValue","nPropDigits","CombinedUncertainty"]}],"tml_elements":["VariableValue","PropertyValue"],"VariableValue":[{"nVarDigits":4,"tml_elements":["nVarNumber","nVarValue","nVarDigits"],"nVarNumber":1,"nVarValue":0.001642}]},{"VariableValue":[{"nVarNumber":1,"tml_elements":["nVarNumber","nVarValue","nVarDigits"],"nVarDigits":4,"nVarValue":0.001818}],"tml_elements":["VariableValue","PropertyValue"],"PropertyValue":[{"nPropValue":11.77,"CombinedUncertainty":{"nCombExpandUncertValue":0.11,"tml_elements":["nCombUncertAssessNum","nCombExpandUncertValue"],"nCombUncertAssessNum":1},"tml_elements":["nPropNumber","nPropValue","nPropDigits","CombinedUncertainty"],"nPropDigits":4,"nPropNumber":1}]},{"tml_elements":["VariableValue","PropertyValue"],"PropertyValue":[{"tml_elements":["nPropNumber","nPropValue","nPropDigits","CombinedUncertainty"],"nPropDigits":4,"nPropNumber":1,"nPropValue":11.78,"CombinedUncertainty":{"nCombUncertAssessNum":1,"tml_elements":["nCombUncertAssessNum","nCombExpandUncertValue"],"nCombExpandUncertValue":0.11}}],"VariableValue":[{"tml_elements":["nVarNumber","nVarValue","nVarDigits"],"nVarDigits":4,"nVarNumber":1,"nVarValue":0.002}]},{"VariableValue":[{"tml_elements":["nVarNumber","nVarValue","nVarDigits"],"nVarDigits":4,"nVarNumber":1,"nVarValue":0.002276}],"PropertyValue":[{"tml_elements":["nPropNumber","nPropValue","nPropDigits","CombinedUncertainty"],"nPropDigits":4,"nPropNumber":1,"nPropValue":11.77,"CombinedUncertainty":{"nCombUncertAssessNum":1,"tml_elements":["nCombUncertAssessNum","nCombExpandUncertValue"],"nCombExpandUncertValue":0.11}}],"tml_elements":["VariableValue","PropertyValue"]},{"VariableValue":[{"nVarValue":0.002726,"tml_elements":["nVarNumber","nVarValue","nVarDigits"],"nVarDigits":4,"nVarNumber":1}],"PropertyValue":[{"nPropValue":11.78,"CombinedUncertainty":{"nCombUncertAssessNum":1,"tml_elements":["nCombUncertAssessNum","nCombExpandUncertValue"],"nCombExpandUncertValue":0.11},"tml_elements":["nPropNumber","nPropValue","nPropDigits","CombinedUncertainty"],"nPropNumber":1,"nPropDigits":4}],"tml_elements":["VariableValue","PropertyValue"]}]},{"NumValues":[{"tml_elements":["VariableValue","PropertyValue"],"PropertyValue":[{"nPropDigits":5,"nPropNumber":1,"tml_elements":["nPropNumber","nPropValue","nPropDigits","CombinedUncertainty"],"nPropValue":1.3308,"CombinedUncertainty":{"nCombUncertAssessNum":1,"nCombExpandUncertValue":0.0007,"tml_elements":["nCombUncertAssessNum","nCombExpandUncertValue"]}}],"VariableValue":[{"nVarDigits":2,"tml_elements":["nVarNumber","nVarValue","nVarDigits"],"nVarNumber":1,"nVarValue":0.02},{"nVarValue":101,"nVarDigits":3,"tml_elements":["nVarNumber","nVarValue","nVarDigits"],"nVarNumber":2},{"nVarValue":293.15,"tml_elements":["nVarNumber","nVarValue","nVarDigits"],"nVarDigits":5,"nVarNumber":3}]}],"sCompiler":"AB","dateDateAdded":"12/17/2014","nPureOrMixtureDataNumber":4,"eExpPurpose":"Principal objective of the work","Property":[{"PropPhaseID":{"tml_elements":["ePropPhase"],"ePropPhase":"Liquid"},"nPropNumber":1,"ePresentation":"Direct value, X","tml_elements":["nPropNumber","Property-MethodID","PropPhaseID","ePresentation","Solvent","CombinedUncertainty"],"Property-MethodID":{"tml_elements":["PropertyGroup"],"PropertyGroup":{"tml_elements":["RefractionSurfaceTensionSoundSpeed"],"RefractionSurfaceTensionSoundSpeed":{"tml_elements":["ePropName","eMethodName"],"eMethodName":"Standard Abbe refractometry","ePropName":"Refractive index (Na D-line)"}}},"Solvent":{"RegNum":[{"nOrgNum":6,"tml_elements":["nOrgNum"]}],"tml_elements":["RegNum"]},"CombinedUncertainty":{"tml_elements":["nCombUncertAssessNum","sCombUncertEvaluator","eCombUncertEvalMethod","nCombUncertLevOfConfid"],"nCombUncertLevOfConfid":95,"eCombUncertEvalMethod":"Propagation of evaluated standard uncertainties","nCombUncertAssessNum":1,"sCombUncertEvaluator":"Data file compiler"}}],"Variable":[{"VariableID":{"VariableType":{"eComponentComposition":"Molality, mol/kg","tml_elements":["eComponentComposition"]},"tml_elements":["VariableType","RegNum"],"RegNum":{"nOrgNum":5,"tml_elements":["nOrgNum"]}},"VarPhaseID":{"eVarPhase":"Liquid","tml_elements":["eVarPhase"]},"nVarNumber":1,"tml_elements":["nVarNumber","VariableID","VarPhaseID"]},{"nVarNumber":2,"VarPhaseID":{"eVarPhase":"Liquid","tml_elements":["eVarPhase"]},"tml_elements":["nVarNumber","VariableID","VarPhaseID"],"VariableID":{"VariableType":{"tml_elements":["ePressure"],"ePressure":"Pressure, kPa"},"tml_elements":["VariableType"]}},{"VariableID":{"VariableType":{"tml_elements":["eTemperature"],"eTemperature":"Temperature, K"},"tml_elements":["VariableType"]},"tml_elements":["nVarNumber","VariableID","VarPhaseID"],"VarPhaseID":{"eVarPhase":"Liquid","tml_elements":["eVarPhase"]},"nVarNumber":3}],"sContributor":"TRC","Component":[{"RegNum":{"tml_elements":["nOrgNum"],"nOrgNum":5},"nSampleNm":1,"tml_elements":["RegNum","nSampleNm"]},{"nSampleNm":1,"RegNum":{"nOrgNum":6,"tml_elements":["nOrgNum"]},"tml_elements":["RegNum","nSampleNm"]}],"PhaseID":[{"tml_elements":["ePhase"],"ePhase":"Liquid"}],"tml_elements":["nPureOrMixtureDataNumber","Component","eExpPurpose","sCompiler","sContributor","dateDateAdded","Property","PhaseID","Variable","NumValues"]},{"sContributor":"TRC","PhaseID":[{"ePhase":"Liquid","tml_elements":["ePhase"]}],"tml_elements":["nPureOrMixtureDataNumber","Component","eExpPurpose","sCompiler","sContributor","dateDateAdded","Property","PhaseID","Variable","NumValues"],"NumValues":[{"VariableValue":[{"nVarValue":0.02,"nVarDigits":2,"tml_elements":["nVarNumber","nVarValue","nVarDigits"],"nVarNumber":1},{"nVarValue":298.15,"tml_elements":["nVarNumber","nVarValue","nVarDigits"],"nVarDigits":5,"nVarNumber":2},{"nVarValue":101.22,"nVarNumber":3,"nVarDigits":5,"tml_elements":["nVarNumber","nVarValue","nVarDigits"]}],"PropertyValue":[{"nPropNumber":1,"nPropDigits":5,"tml_elements":["nPropNumber","nPropValue","nPropDigits","CombinedUncertainty"],"nPropValue":-12.249,"CombinedUncertainty":{"tml_elements":["nCombUncertAssessNum","nCombExpandUncertValue"],"nCombExpandUncertValue":0.208,"nCombUncertAssessNum":1}}],"tml_elements":["VariableValue","PropertyValue"]}],"sCompiler":"AB","nPureOrMixtureDataNumber":5,"dateDateAdded":"12/17/2014","eExpPurpose":"Principal objective of the work","Property":[{"Property-MethodID":{"tml_elements":["PropertyGroup"],"PropertyGroup":{"tml_elements":["ExcessPartialApparentEnergyProp"],"ExcessPartialApparentEnergyProp":{"tml_elements":["ePropName","sMethodName"],"sMethodName":"ISOPERIBOL","ePropName":"Molar enthalpy of solution, kJ/mol"}}},"RefPhaseID":{"eRefPhase":"Liquid","tml_elements":["eRefPhase"]},"eRefStateType":"Pure solute at the same temperature and pressure","CombinedUncertainty":{"nCombUncertAssessNum":1,"sCombUncertEvaluator":"Data file compiler","tml_elements":["nCombUncertAssessNum","sCombUncertEvaluator","eCombUncertEvalMethod","nCombUncertLevOfConfid"],"nCombUncertLevOfConfid":95,"eCombUncertEvalMethod":"Propagation of evaluated standard uncertainties"},"Solvent":{"RegNum":[{"tml_elements":["nOrgNum"],"nOrgNum":6}],"tml_elements":["RegNum"]},"nPropNumber":1,"PropPhaseID":{"ePropPhase":"Liquid","tml_elements":["ePropPhase"]},"tml_elements":["nPropNumber","Property-MethodID","PropPhaseID","ePresentation","eRefStateType","RefPhaseID","Solvent","CombinedUncertainty"],"ePresentation":"Difference with the reference state, X-X(REF)"}],"Variable":[{"VariableID":{"RegNum":{"nOrgNum":7,"tml_elements":["nOrgNum"]},"tml_elements":["VariableType","RegNum"],"VariableType":{"tml_elements":["eComponentComposition"],"eComponentComposition":"Molality, mol/kg"}},"VarPhaseID":{"tml_elements":["eVarPhase"],"eVarPhase":"Liquid"},"nVarNumber":1,"tml_elements":["nVarNumber","VariableID","VarPhaseID"]},{"VariableID":{"VariableType":{"eTemperature":"Temperature, K","tml_elements":["eTemperature"]},"tml_elements":["VariableType"]},"tml_elements":["nVarNumber","VariableID","VarPhaseID"],"nVarNumber":2,"VarPhaseID":{"eVarPhase":"Liquid","tml_elements":["eVarPhase"]}},{"VariableID":{"tml_elements":["VariableType"],"VariableType":{"ePressure":"Pressure, kPa","tml_elements":["ePressure"]}},"tml_elements":["nVarNumber","VariableID","VarPhaseID"],"VarPhaseID":{"eVarPhase":"Liquid","tml_elements":["eVarPhase"]},"nVarNumber":3}],"Component":[{"nSampleNm":1,"RegNum":{"tml_elements":["nOrgNum"],"nOrgNum":7},"tml_elements":["RegNum","nSampleNm"]},{"nSampleNm":1,"RegNum":{"nOrgNum":6,"tml_elements":["nOrgNum"]},"tml_elements":["RegNum","nSampleNm"]}]}],"ReactionData":[{"eReactionType":"Formation of a compound from elements in their stable state","Participant":[{"nStoichiometricCoef":"1","nSampleNm":1,"RegNum":{"tml_elements":["nOrgNum"],"nOrgNum":5},"tml_elements":["RegNum","nSampleNm","nStoichiometricCoef","ePhase"],"ePhase":"Crystal"},{"RegNum":{"nOrgNum":1,"tml_elements":["nOrgNum"]},"nStoichiometricCoef":"-1","tml_elements":["RegNum","nStoichiometricCoef","ePhase"],"ePhase":"Crystal"},{"ePhase":"Ideal gas","tml_elements":["RegNum","nStoichiometricCoef","ePhase"],"nStoichiometricCoef":"-1.5","RegNum":{"nOrgNum":2,"tml_elements":["nOrgNum"]}},{"ePhase":"Crystal","tml_elements":["RegNum","nStoichiometricCoef","ePhase"],"RegNum":{"tml_elements":["nOrgNum"],"nOrgNum":3},"nStoichiometricCoef":"-3"},{"ePhase":"Ideal gas","tml_elements":["RegNum","nStoichiometricCoef","ePhase"],"RegNum":{"tml_elements":["nOrgNum"],"nOrgNum":4},"nStoichiometricCoef":"-1.5"}],"tml_elements":["nReactionDataNumber","Participant","eExpPurpose","sCompiler","sContributor","dateDateAdded","eReactionType","Property","NumValues"],"sContributor":"TRC","nReactionDataNumber":1,"Property":[{"nPropNumber":1,"Property-MethodID":{"PropertyGroup":{"ReactionStateChangeProp":{"eMethodName":"Solution calorimetry","ePropName":"Molar enthalpy of reaction, kJ/mol","tml_elements":["ePropName","eMethodName"]},"tml_elements":["ReactionStateChangeProp"]},"tml_elements":["PropertyGroup"]},"tml_elements":["nPropNumber","Property-MethodID","nTemperature-K","nTemperatureDigits","nPressure-kPa","nPressureDigits","CombinedUncertainty"],"nTemperatureDigits":5,"CombinedUncertainty":{"nCombUncertLevOfConfid":95,"eCombUncertEvalMethod":"Propagation of evaluated standard uncertainties","tml_elements":["nCombUncertAssessNum","sCombUncertEvaluator","eCombUncertEvalMethod","nCombUncertLevOfConfid"],"sCombUncertEvaluator":"Data file compiler","nCombUncertAssessNum":1},"nTemperature-K":"298.15","nPressureDigits":4,"nPressure-kPa":"101.3"}],"eExpPurpose":"Principal objective of the work","NumValues":[{"PropertyValue":[{"nPropValue":-836.65,"CombinedUncertainty":{"tml_elements":["nCombUncertAssessNum","nCombExpandUncertValue"],"nCombExpandUncertValue":8.38,"nCombUncertAssessNum":1},"nPropDigits":5,"nPropNumber":1,"tml_elements":["nPropNumber","nPropValue","nPropDigits","CombinedUncertainty"]}],"tml_elements":["PropertyValue"],"VariableValue":[]}],"sCompiler":"AB","dateDateAdded":"12/17/2014"}],"THERMOML_MD5_CHECKSUM":"6ba4bd99777d6469225ff7c29f9bf6d0","Compound":[{"sStandardInChIKey":"KEAYESYHFKHZAL-UHFFFAOYSA-N","sFormulaMolec":"Na","tml_elements":["RegNum","sStandardInChI","sStandardInChIKey","sCommonName","sFormulaMolec"],"sCommonName":["sodium"],"RegNum":{"tml_elements":["nOrgNum"],"nOrgNum":1},"sStandardInChI":"InChI=1S/Na"},{"sStandardInChIKey":"UFHFLCQGNIYNRP-UHFFFAOYSA-N","sStandardInChI":"InChI=1S/H2/h1H","RegNum":{"nOrgNum":2,"tml_elements":["nOrgNum"]},"sFormulaMolec":"H2","sCommonName":["hydrogen","hydrogen (normal)"],"tml_elements":["RegNum","sStandardInChI","sStandardInChIKey","sCommonName","sFormulaMolec"]},{"sFormulaMolec":"C","tml_elements":["RegNum","sCommonName","sFormulaMolec"],"sCommonName":["graphite"],"RegNum":{"nOrgNum":3,"tml_elements":["nOrgNum"]}},{"sCommonName":["oxygen"],"tml_elements":["RegNum","sStandardInChI","sStandardInChIKey","sCommonName","sFormulaMolec"],"sStandardInChIKey":"MYMOFIZGZYHOMD-UHFFFAOYSA-N","sFormulaMolec":"O2","sStandardInChI":"InChI=1S/O2/c1-2","RegNum":{"tml_elements":["nOrgNum"],"nOrgNum":4}},{"sStandardInChIKey":"DAEPDZWVDSPTHF-UHFFFAOYSA-M","sStandardInChI":"InChI=1S/C3H4O3.Na/c1-2(4)3(5)6;/h1H3,(H,5,6);/q;+1/p-1","RegNum":{"nOrgNum":5,"tml_elements":["nOrgNum"]},"sFormulaMolec":"C3H3NaO3","sCommonName":["sodium pyruvate","sodium 2-oxypropanoate"],"Sample":[{"tml_elements":["nSampleNm","eSource","purity"],"purity":[{"ePurifMethod":["Crystallization from solution","Dried in a desiccator","Dried by vacuum heating"],"tml_elements":["nStep","ePurifMethod","ePurifMethod","ePurifMethod"],"nStep":1},{"tml_elements":["nStep","nPurityMass","nPurityMassDigits","eAnalMeth"],"nPurityMassDigits":3,"nStep":2,"nPurityMass":99.6,"eAnalMeth":["Chemical analysis"]}],"eSource":"Synthesized by the authors","nSampleNm":1}],"tml_elements":["RegNum","sStandardInChI","sStandardInChIKey","sCommonName","sFormulaMolec","Sample"]},{"RegNum":{"nOrgNum":6,"tml_elements":["nOrgNum"]},"sStandardInChI":"InChI=1S/H2O/h1H2","sCommonName":["water"],"tml_elements":["RegNum","sStandardInChI","sStandardInChIKey","sCommonName","sFormulaMolec","Sample"],"Sample":[{"purity":[{"ePurifMethod":["Fractional distillation"],"nStep":1,"tml_elements":["nStep","ePurifMethod"]},{"nPurityMass":99.8,"eAnalMeth":["Estimated by the compiler"],"tml_elements":["nStep","nPurityMass","nPurityMassDigits","eAnalMeth"],"nPurityMassDigits":3,"nStep":2}],"tml_elements":["nSampleNm","eSource","purity"],"eSource":"Commercial source","nSampleNm":1}],"sStandardInChIKey":"XLYOFNOQVPJJNP-UHFFFAOYSA-N","sFormulaMolec":"H2O"},{"sStandardInChIKey":"LCTONWCANYUPML-UHFFFAOYSA-N","sStandardInChI":"InChI=1S/C3H4O3/c1-2(4)3(5)6/h1H3,(H,5,6)","RegNum":{"nOrgNum":7,"tml_elements":["nOrgNum"]},"Sample":[{"tml_elements":["nSampleNm","eSource","purity"],"purity":[{"tml_elements":["nStep","nPurityMass","nPurityMassDigits","eAnalMeth"],"nPurityMassDigits":3,"nStep":1,"nPurityMass":99.5,"eAnalMeth":["Stated by supplier"]}],"nSampleNm":1,"eSource":"Commercial source"}],"tml_elements":["RegNum","sStandardInChI","sStandardInChIKey","sCommonName","sFormulaMolec","Sample"],"sCommonName":["2-oxopropanoic acid","2-oxopropionic acid","pyruvic acid"],"sFormulaMolec":"C3H4O3"}]}