{"THERMOML_MD5_CHECKSUM":"e46823ba2eb88e4fafcd8fbc431def73","Compound":[{"sFormulaMolec":"C9H16O4","tml_elements":["RegNum","sStandardInChI","sStandardInChIKey","sCommonName","sFormulaMolec","Sample"],"Sample":[{"purity":[{"eAnalMeth":["Stated by supplier"],"nPurityMolDigits":3,"nStep":1,"tml_elements":["nStep","nPurityMol","nPurityMolDigits","eAnalMeth"],"nPurityMol":99.6}],"tml_elements":["nSampleNm","eSource","purity"],"eSource":"Commercial source","nSampleNm":1}],"sCommonName":["diethyl glutarate","diethyl pentandioate","glutaric acid, diethyl ester","pentanedioic acid, diethyl ester"],"sStandardInChIKey":"OUWSNHWQZPEFEX-UHFFFAOYSA-N","RegNum":{"nOrgNum":1,"tml_elements":["nOrgNum"]},"sStandardInChI":"InChI=1S/C9H16O4/c1-3-12-8(10)6-5-7-9(11)13-4-2/h3-7H2,1-2H3"},{"sFormulaMolec":"C12H22O4","tml_elements":["RegNum","sStandardInChI","sStandardInChIKey","sCommonName","sFormulaMolec","Sample"],"sCommonName":["diethyl 1,8-octanedioate","1,8-octanedioic acid, diethyl ester","diethyl octanedioate","diethyl suberate","suberic acid, diethyl ester"],"Sample":[{"eSource":"Commercial source","nSampleNm":1,"purity":[{"eAnalMeth":["Stated by supplier"],"nPurityMol":99.5,"tml_elements":["nStep","nPurityMol","nPurityMolDigits","eAnalMeth"],"nStep":1,"nPurityMolDigits":3}],"tml_elements":["nSampleNm","eSource","purity"]}],"sStandardInChIKey":"PEUGOJXLBSIJQS-UHFFFAOYSA-N","sStandardInChI":"InChI=1S/C12H22O4/c1-3-15-11(13)9-7-5-6-8-10-12(14)16-4-2/h3-10H2,1-2H3","RegNum":{"tml_elements":["nOrgNum"],"nOrgNum":2}},{"sFormulaMolec":"C14H26O4","sCommonName":["diethyl decanedioate","decanedioic acid, diethyl ester","diethyl sebacate","sebacic acid, diethyl ester"],"Sample":[{"nSampleNm":1,"eSource":"Commercial source","purity":[{"nPurityMolDigits":3,"nStep":1,"nPurityMol":99.7,"tml_elements":["nStep","nPurityMol","nPurityMolDigits","eAnalMeth"],"eAnalMeth":["Stated by supplier"]}],"tml_elements":["nSampleNm","eSource","purity"]}],"tml_elements":["RegNum","sStandardInChI","sStandardInChIKey","sCommonName","sFormulaMolec","Sample"],"sStandardInChI":"InChI=1S/C14H26O4/c1-3-17-13(15)11-9-7-5-6-8-10-12-14(16)18-4-2/h3-12H2,1-2H3","RegNum":{"nOrgNum":3,"tml_elements":["nOrgNum"]},"sStandardInChIKey":"ONKUXPIBXRRIDU-UHFFFAOYSA-N"}],"Citation":{"eType":"journal","sVol":"116","sPage":"130-133","yrPubYr":"2018","sPubName":"J. Chem. Thermodyn.","dateCit":"2020-09-29","tml_elements":["TRCRefID","eType","eSourceType","sAuthor","sPubName","yrPubYr","dateCit","sTitle","sAbstract","sKeyword","sDOI","sVol","sPage"],"sAuthor":["Nikitin, Eugene D.","Popov, Alexander P."],"sKeyword":["Critical properties","Thermally unstable compounds","Dicarboxylic acid diethyl esters","Pulse-heating method"],"TRCRefID":{"sAuthor1":"nik","sAuthor2":"pop","nAuthorn":"0","tml_elements":["yrYrPub","sAuthor1","sAuthor2","nAuthorn"],"yrYrPub":"2018"},"sAbstract":"The critical temperatures and pressures of diethyl esters of straight-chain saturated dicarboxylic acids C2H5OOC(CH2)n 2COOC2H5 with n = 5, 8, 10 have been measured. The data of this work and the results of the previous measurements have been analyzed and the recommended critical temperatures and pressures of diethyl esters from diethyl ethanedioate to diethyl decanedioate have been given. The internal consistency of the experimental data has been tested by considering the plot oM=pcP1=2 versus n, where M is the molar mass, pc is the critical pressure. The acentric factors of dicarboxylic acid diethyl esters have been calculated.","sDOI":"10.1016/j.jct.2017.09.004","sTitle":"Vapor-liquid critical temperatures and pressures of dicarboxylic acid diethyl esters","eSourceType":"Original"},"tml_elements":["Version","Citation","Compound","PureOrMixtureData"],"PureOrMixtureData":[{"sContributor":"TRC","Component":[{"tml_elements":["RegNum","nSampleNm"],"RegNum":{"tml_elements":["nOrgNum"],"nOrgNum":1},"nSampleNm":1}],"tml_elements":["nPureOrMixtureDataNumber","Component","eExpPurpose","sCompiler","sContributor","dateDateAdded","Property","PhaseID","NumValues"],"PhaseID":[{"ePhase":"Liquid","tml_elements":["ePhase"]},{"tml_elements":["ePhase"],"ePhase":"Gas"}],"NumValues":[{"PropertyValue":[{"nPropValue":682,"CombinedUncertainty":{"nCombUncertAssessNum":1,"nCombExpandUncertValue":7,"tml_elements":["nCombUncertAssessNum","nCombExpandUncertValue"]},"tml_elements":["nPropNumber","nPropValue","nPropDigits","CombinedUncertainty"],"nPropDigits":3,"nPropNumber":1}],"tml_elements":["PropertyValue"],"VariableValue":[]}],"dateDateAdded":"8/7/2017","nPureOrMixtureDataNumber":1,"sCompiler":"AB","eExpPurpose":"Principal objective of the work","Property":[{"CombinedUncertainty":{"nCombUncertLevOfConfid":95,"eCombUncertEvalMethod":"Propagation of evaluated standard uncertainties","tml_elements":["nCombUncertAssessNum","sCombUncertEvaluator","eCombUncertEvalMethod","nCombUncertLevOfConfid"],"sCombUncertEvaluator":"Data file compiler","nCombUncertAssessNum":1},"ePresentation":"Direct value, X","tml_elements":["nPropNumber","Property-MethodID","PropPhaseID","ePresentation","CombinedUncertainty"],"Property-MethodID":{"tml_elements":["PropertyGroup"],"PropertyGroup":{"Criticals":{"ePropName":"Critical temperature, K","eMethodName":"Resistive pulse heating","tml_elements":["ePropName","eMethodName"]},"tml_elements":["Criticals"]}},"PropPhaseID":{"ePropPhase":"Liquid","tml_elements":["ePropPhase"]},"nPropNumber":1}]},{"Property":[{"tml_elements":["nPropNumber","Property-MethodID","PropPhaseID","ePresentation","CombinedUncertainty"],"ePresentation":"Direct value, X","nPropNumber":1,"PropPhaseID":{"ePropPhase":"Liquid","tml_elements":["ePropPhase"]},"CombinedUncertainty":{"nCombUncertLevOfConfid":95,"eCombUncertEvalMethod":"Propagation of evaluated standard uncertainties","tml_elements":["nCombUncertAssessNum","sCombUncertEvaluator","eCombUncertEvalMethod","nCombUncertLevOfConfid"],"sCombUncertEvaluator":"Data file compiler","nCombUncertAssessNum":1},"Property-MethodID":{"PropertyGroup":{"Criticals":{"ePropName":"Critical pressure, kPa","eMethodName":"Resistive pulse heating","tml_elements":["ePropName","eMethodName"]},"tml_elements":["Criticals"]},"tml_elements":["PropertyGroup"]}}],"eExpPurpose":"Principal objective of the work","nPureOrMixtureDataNumber":2,"dateDateAdded":"8/7/2017","sCompiler":"AB","NumValues":[{"tml_elements":["PropertyValue"],"PropertyValue":[{"nPropNumber":1,"nPropDigits":3,"tml_elements":["nPropNumber","nPropValue","nPropDigits","CombinedUncertainty"],"CombinedUncertainty":{"nCombUncertAssessNum":1,"tml_elements":["nCombUncertAssessNum","nCombExpandUncertValue"],"nCombExpandUncertValue":60},"nPropValue":2130}],"VariableValue":[]}],"tml_elements":["nPureOrMixtureDataNumber","Component","eExpPurpose","sCompiler","sContributor","dateDateAdded","Property","PhaseID","NumValues"],"PhaseID":[{"ePhase":"Liquid","tml_elements":["ePhase"]},{"tml_elements":["ePhase"],"ePhase":"Gas"}],"Component":[{"RegNum":{"tml_elements":["nOrgNum"],"nOrgNum":1},"nSampleNm":1,"tml_elements":["RegNum","nSampleNm"]}],"sContributor":"TRC"},{"NumValues":[{"PropertyValue":[{"nPropDigits":3,"nPropNumber":1,"tml_elements":["nPropNumber","nPropValue","nPropDigits","CombinedUncertainty"],"nPropValue":723,"CombinedUncertainty":{"nCombExpandUncertValue":7,"tml_elements":["nCombUncertAssessNum","nCombExpandUncertValue"],"nCombUncertAssessNum":1}}],"tml_elements":["PropertyValue"],"VariableValue":[]}],"sCompiler":"AB","dateDateAdded":"8/7/2017","nPureOrMixtureDataNumber":3,"eExpPurpose":"Principal objective of the work","Property":[{"Property-MethodID":{"PropertyGroup":{"tml_elements":["Criticals"],"Criticals":{"ePropName":"Critical temperature, K","eMethodName":"Resistive pulse heating","tml_elements":["ePropName","eMethodName"]}},"tml_elements":["PropertyGroup"]},"CombinedUncertainty":{"sCombUncertEvaluator":"Data file compiler","nCombUncertAssessNum":1,"nCombUncertLevOfConfid":95,"eCombUncertEvalMethod":"Propagation of evaluated standard uncertainties","tml_elements":["nCombUncertAssessNum","sCombUncertEvaluator","eCombUncertEvalMethod","nCombUncertLevOfConfid"]},"PropPhaseID":{"tml_elements":["ePropPhase"],"ePropPhase":"Liquid"},"nPropNumber":1,"ePresentation":"Direct value, X","tml_elements":["nPropNumber","Property-MethodID","PropPhaseID","ePresentation","CombinedUncertainty"]}],"sContributor":"TRC","Component":[{"tml_elements":["RegNum","nSampleNm"],"nSampleNm":1,"RegNum":{"nOrgNum":2,"tml_elements":["nOrgNum"]}}],"PhaseID":[{"tml_elements":["ePhase"],"ePhase":"Liquid"},{"ePhase":"Gas","tml_elements":["ePhase"]}],"tml_elements":["nPureOrMixtureDataNumber","Component","eExpPurpose","sCompiler","sContributor","dateDateAdded","Property","PhaseID","NumValues"]},{"sContributor":"TRC","tml_elements":["nPureOrMixtureDataNumber","Component","eExpPurpose","sCompiler","sContributor","dateDateAdded","Property","PhaseID","NumValues"],"PhaseID":[{"ePhase":"Liquid","tml_elements":["ePhase"]},{"ePhase":"Gas","tml_elements":["ePhase"]}],"Component":[{"nSampleNm":1,"RegNum":{"nOrgNum":2,"tml_elements":["nOrgNum"]},"tml_elements":["RegNum","nSampleNm"]}],"nPureOrMixtureDataNumber":4,"dateDateAdded":"8/7/2017","sCompiler":"AB","NumValues":[{"VariableValue":[],"tml_elements":["PropertyValue"],"PropertyValue":[{"tml_elements":["nPropNumber","nPropValue","nPropDigits","CombinedUncertainty"],"nPropNumber":1,"nPropDigits":3,"CombinedUncertainty":{"nCombUncertAssessNum":1,"nCombExpandUncertValue":50,"tml_elements":["nCombUncertAssessNum","nCombExpandUncertValue"]},"nPropValue":1570}]}],"Property":[{"ePresentation":"Direct value, X","tml_elements":["nPropNumber","Property-MethodID","PropPhaseID","ePresentation","CombinedUncertainty"],"PropPhaseID":{"ePropPhase":"Liquid","tml_elements":["ePropPhase"]},"Property-MethodID":{"PropertyGroup":{"tml_elements":["Criticals"],"Criticals":{"tml_elements":["ePropName","eMethodName"],"eMethodName":"Resistive pulse heating","ePropName":"Critical pressure, kPa"}},"tml_elements":["PropertyGroup"]},"nPropNumber":1,"CombinedUncertainty":{"nCombUncertLevOfConfid":95,"eCombUncertEvalMethod":"Propagation of evaluated standard uncertainties","tml_elements":["nCombUncertAssessNum","sCombUncertEvaluator","eCombUncertEvalMethod","nCombUncertLevOfConfid"],"sCombUncertEvaluator":"Data file compiler","nCombUncertAssessNum":1}}],"eExpPurpose":"Principal objective of the work"},{"eExpPurpose":"Principal objective of the work","Property":[{"CombinedUncertainty":{"nCombUncertLevOfConfid":95,"eCombUncertEvalMethod":"Propagation of evaluated standard uncertainties","tml_elements":["nCombUncertAssessNum","sCombUncertEvaluator","eCombUncertEvalMethod","nCombUncertLevOfConfid"],"sCombUncertEvaluator":"Data file compiler","nCombUncertAssessNum":1},"nPropNumber":1,"PropPhaseID":{"tml_elements":["ePropPhase"],"ePropPhase":"Liquid"},"Property-MethodID":{"tml_elements":["PropertyGroup"],"PropertyGroup":{"Criticals":{"ePropName":"Critical temperature, K","eMethodName":"Resistive pulse heating","tml_elements":["ePropName","eMethodName"]},"tml_elements":["Criticals"]}},"tml_elements":["nPropNumber","Property-MethodID","PropPhaseID","ePresentation","CombinedUncertainty"],"ePresentation":"Direct value, X"}],"NumValues":[{"PropertyValue":[{"nPropDigits":2,"nPropNumber":1,"tml_elements":["nPropNumber","nPropValue","nPropDigits","CombinedUncertainty"],"CombinedUncertainty":{"tml_elements":["nCombUncertAssessNum","nCombExpandUncertValue"],"nCombExpandUncertValue":7,"nCombUncertAssessNum":1},"nPropValue":740}],"tml_elements":["PropertyValue"],"VariableValue":[]}],"sCompiler":"AB","nPureOrMixtureDataNumber":5,"dateDateAdded":"8/7/2017","Component":[{"tml_elements":["RegNum","nSampleNm"],"nSampleNm":1,"RegNum":{"nOrgNum":3,"tml_elements":["nOrgNum"]}}],"PhaseID":[{"tml_elements":["ePhase"],"ePhase":"Liquid"},{"ePhase":"Gas","tml_elements":["ePhase"]}],"tml_elements":["nPureOrMixtureDataNumber","Component","eExpPurpose","sCompiler","sContributor","dateDateAdded","Property","PhaseID","NumValues"],"sContributor":"TRC"},{"sContributor":"TRC","Component":[{"nSampleNm":1,"RegNum":{"nOrgNum":3,"tml_elements":["nOrgNum"]},"tml_elements":["RegNum","nSampleNm"]}],"PhaseID":[{"ePhase":"Liquid","tml_elements":["ePhase"]},{"tml_elements":["ePhase"],"ePhase":"Gas"}],"tml_elements":["nPureOrMixtureDataNumber","Component","eExpPurpose","sCompiler","sContributor","dateDateAdded","Property","PhaseID","NumValues"],"NumValues":[{"VariableValue":[],"tml_elements":["PropertyValue"],"PropertyValue":[{"CombinedUncertainty":{"nCombExpandUncertValue":40,"tml_elements":["nCombUncertAssessNum","nCombExpandUncertValue"],"nCombUncertAssessNum":1},"nPropValue":1370,"nPropDigits":3,"nPropNumber":1,"tml_elements":["nPropNumber","nPropValue","nPropDigits","CombinedUncertainty"]}]}],"sCompiler":"AB","nPureOrMixtureDataNumber":6,"dateDateAdded":"8/7/2017","Property":[{"CombinedUncertainty":{"tml_elements":["nCombUncertAssessNum","sCombUncertEvaluator","eCombUncertEvalMethod","nCombUncertLevOfConfid"],"eCombUncertEvalMethod":"Propagation of evaluated standard uncertainties","nCombUncertLevOfConfid":95,"nCombUncertAssessNum":1,"sCombUncertEvaluator":"Data file compiler"},"Property-MethodID":{"tml_elements":["PropertyGroup"],"PropertyGroup":{"Criticals":{"eMethodName":"Resistive pulse heating","ePropName":"Critical pressure, kPa","tml_elements":["ePropName","eMethodName"]},"tml_elements":["Criticals"]}},"nPropNumber":1,"PropPhaseID":{"ePropPhase":"Liquid","tml_elements":["ePropPhase"]},"tml_elements":["nPropNumber","Property-MethodID","PropPhaseID","ePresentation","CombinedUncertainty"],"ePresentation":"Direct value, X"}],"eExpPurpose":"Principal objective of the work"}],"Version":{"tml_elements":["nVersionMajor","nVersionMinor"],"nVersionMajor":2,"nVersionMinor":0}}