{"Version":{"nVersionMajor":2,"nVersionMinor":0,"tml_elements":["nVersionMajor","nVersionMinor"]},"Citation":{"sVol":"41","eType":"journal","sPage":"26-29","dateCit":"2020-09-29","sIDNum":"1","yrPubYr":"2009","sPubName":"J. Chem. Thermodyn.","tml_elements":["TRCRefID","eType","eSourceType","sAuthor","sPubName","yrPubYr","dateCit","sTitle","sAbstract","sKeyword","sDOI","sIDNum","sVol","sPage"],"sAuthor":["Ribeiro da Silva, M. A. V.[Manuel A. V.]","Amaral, L. M. P. F.[Luisa M. P. F.]"],"sKeyword":["Thermochemistry","Energy of combustion","Enthalpy of formation","Enthalpy of vaporization","2-Furancarbonitrile","2-Acetylfuran","3-Furaldehyde"],"TRCRefID":{"yrYrPub":"2009","tml_elements":["yrYrPub","sAuthor1","sAuthor2","nAuthorn"],"nAuthorn":"0","sAuthor2":"ama","sAuthor1":"rib"},"sAbstract":"The standard (p  = 0.1 MPa) molar energies of combustion of 2-furancarbonitrile, 2-acetylfuran, and  3-furaldehyde were measured by static bomb combustion calorimetry; the Calvet high-temperature microcalorimetry  was used to measure the enthalpies of vaporization of these liquid compounds. The standard  molar enthalpies of formation of the three compounds, in the gaseous phase, at T = 298.15 K, have  been derived from the corresponding standard molar enthalpies of formation in the liquid phase and the  standard molar enthalpies of phase transition, as (106.8 +- 1.1) kJ   mol 1,  (207.4 +- 1.3) kJ   mol 1, and   (151.9 +- 1.1) kJ   mol 1, for 2-furancarbonitrile, 2-acetylfuran, and 3-furaldehyde, respectively.  Standard molar enthalpies of formation are discussed in terms of the isomerization ortho meta. Enthalpic  increment values of the introduction of the functional groups  CN,  CHO, and  COCH3 were also compared  with some other heterocycles; i.e. thiophene and pyridine.","sDOI":"10.1016/j.jct.2008.08.004","sTitle":"Standard molar enthalpies of formation of 2-furancarbonitrile, 2-acetylfuran, and 3-furaldehyde","eSourceType":"Original"},"tml_elements":["Version","Citation","Compound","PureOrMixtureData","ReactionData"],"ReactionData":[{"eReactionType":"Combustion with oxygen","Participant":[{"nStoichiometricCoef":"-1","nSampleNm":1,"RegNum":{"nOrgNum":5,"tml_elements":["nOrgNum"]},"tml_elements":["RegNum","nSampleNm","nStoichiometricCoef","ePhase"],"ePhase":"Liquid"},{"nStoichiometricCoef":"5","RegNum":{"tml_elements":["nOrgNum"],"nOrgNum":1},"ePhase":"Ideal gas","tml_elements":["RegNum","nStoichiometricCoef","ePhase"]},{"nStoichiometricCoef":".5","RegNum":{"nOrgNum":2,"tml_elements":["nOrgNum"]},"ePhase":"Ideal gas","tml_elements":["RegNum","nStoichiometricCoef","ePhase"]},{"RegNum":{"tml_elements":["nOrgNum"],"nOrgNum":3},"nStoichiometricCoef":"1.5","tml_elements":["RegNum","nStoichiometricCoef","ePhase"],"ePhase":"Liquid"},{"ePhase":"Ideal gas","tml_elements":["RegNum","nStoichiometricCoef","ePhase"],"nStoichiometricCoef":"-5.25","RegNum":{"nOrgNum":4,"tml_elements":["nOrgNum"]}}],"tml_elements":["nReactionDataNumber","Participant","eExpPurpose","sCompiler","sContributor","dateDateAdded","eReactionType","Property","NumValues"],"sContributor":"TRC","nReactionDataNumber":1,"Property":[{"nPressure-kPa":"101.325","nPressureDigits":6,"nTemperature-K":"298.15","CombinedUncertainty":{"nCombUncertAssessNum":1,"sCombUncertEvaluator":"Data file compiler","tml_elements":["nCombUncertAssessNum","sCombUncertEvaluator","eCombUncertEvalMethod","nCombUncertLevOfConfid"],"eCombUncertEvalMethod":"Propagation of evaluated standard uncertainties","nCombUncertLevOfConfid":95},"nTemperatureDigits":5,"Property-MethodID":{"tml_elements":["PropertyGroup"],"PropertyGroup":{"tml_elements":["ReactionStateChangeProp"],"ReactionStateChangeProp":{"tml_elements":["ePropName","eMethodName"],"eMethodName":"Static bomb calorimetry","ePropName":"Specific internal energy of reaction at constant volume, J/g"}}},"tml_elements":["nPropNumber","Property-MethodID","nTemperature-K","nTemperatureDigits","nPressure-kPa","nPressureDigits","CombinedUncertainty"],"nPropNumber":1}],"eExpPurpose":"Principal objective of the work","NumValues":[{"PropertyValue":[{"nPropNumber":1,"nPropDigits":6,"tml_elements":["nPropNumber","nPropValue","nPropDigits","CombinedUncertainty"],"nPropValue":-26415.2,"CombinedUncertainty":{"nCombUncertAssessNum":1,"nCombExpandUncertValue":5.5,"tml_elements":["nCombUncertAssessNum","nCombExpandUncertValue"]}}],"tml_elements":["PropertyValue"],"VariableValue":[]}],"sCompiler":"JFK","dateDateAdded":"3/13/2009"},{"eExpPurpose":"Principal objective of the work","Property":[{"nPropNumber":1,"Property-MethodID":{"PropertyGroup":{"tml_elements":["ReactionStateChangeProp"],"ReactionStateChangeProp":{"tml_elements":["ePropName","eMethodName"],"ePropName":"Specific internal energy of reaction at constant volume, J/g","eMethodName":"Static bomb calorimetry"}},"tml_elements":["PropertyGroup"]},"tml_elements":["nPropNumber","Property-MethodID","nTemperature-K","nTemperatureDigits","nPressure-kPa","nPressureDigits","CombinedUncertainty"],"nTemperatureDigits":5,"CombinedUncertainty":{"tml_elements":["nCombUncertAssessNum","sCombUncertEvaluator","eCombUncertEvalMethod","nCombUncertLevOfConfid"],"eCombUncertEvalMethod":"Propagation of evaluated standard uncertainties","nCombUncertLevOfConfid":95,"nCombUncertAssessNum":1,"sCombUncertEvaluator":"Data file compiler"},"nTemperature-K":"298.15","nPressureDigits":6,"nPressure-kPa":"101.325"}],"NumValues":[{"tml_elements":["PropertyValue"],"PropertyValue":[{"nPropDigits":5,"nPropNumber":1,"tml_elements":["nPropNumber","nPropValue","nPropDigits","CombinedUncertainty"],"nPropValue":-26854,"CombinedUncertainty":{"tml_elements":["nCombUncertAssessNum","nCombExpandUncertValue"],"nCombExpandUncertValue":4.6,"nCombUncertAssessNum":1}}],"VariableValue":[]}],"dateDateAdded":"3/13/2009","sCompiler":"JFK","Participant":[{"nSampleNm":1,"nStoichiometricCoef":"-1","RegNum":{"nOrgNum":6,"tml_elements":["nOrgNum"]},"ePhase":"Liquid","tml_elements":["RegNum","nSampleNm","nStoichiometricCoef","ePhase"]},{"ePhase":"Ideal gas","tml_elements":["RegNum","nStoichiometricCoef","ePhase"],"nStoichiometricCoef":"6","RegNum":{"nOrgNum":1,"tml_elements":["nOrgNum"]}},{"ePhase":"Liquid","tml_elements":["RegNum","nStoichiometricCoef","ePhase"],"RegNum":{"nOrgNum":3,"tml_elements":["nOrgNum"]},"nStoichiometricCoef":"3"},{"nStoichiometricCoef":"-6.5","RegNum":{"tml_elements":["nOrgNum"],"nOrgNum":4},"ePhase":"Ideal gas","tml_elements":["RegNum","nStoichiometricCoef","ePhase"]}],"tml_elements":["nReactionDataNumber","Participant","eExpPurpose","sCompiler","sContributor","dateDateAdded","eReactionType","Property","NumValues"],"eReactionType":"Combustion with oxygen","sContributor":"TRC","nReactionDataNumber":2},{"Property":[{"nPropNumber":1,"tml_elements":["nPropNumber","Property-MethodID","nTemperature-K","nTemperatureDigits","nPressure-kPa","nPressureDigits","CombinedUncertainty"],"nTemperature-K":"298.15","CombinedUncertainty":{"nCombUncertAssessNum":1,"sCombUncertEvaluator":"Data file compiler","tml_elements":["nCombUncertAssessNum","sCombUncertEvaluator","eCombUncertEvalMethod","nCombUncertLevOfConfid"],"nCombUncertLevOfConfid":95,"eCombUncertEvalMethod":"Propagation of evaluated standard uncertainties"},"nPressure-kPa":"101.325","nPressureDigits":6,"Property-MethodID":{"PropertyGroup":{"tml_elements":["ReactionStateChangeProp"],"ReactionStateChangeProp":{"tml_elements":["ePropName","eMethodName"],"ePropName":"Specific internal energy of reaction at constant volume, J/g","eMethodName":"Static bomb calorimetry"}},"tml_elements":["PropertyGroup"]},"nTemperatureDigits":5}],"eExpPurpose":"Principal objective of the work","sCompiler":"JFK","dateDateAdded":"3/13/2009","NumValues":[{"PropertyValue":[{"nPropValue":-24345,"CombinedUncertainty":{"nCombUncertAssessNum":1,"tml_elements":["nCombUncertAssessNum","nCombExpandUncertValue"],"nCombExpandUncertValue":3.8},"nPropDigits":5,"nPropNumber":1,"tml_elements":["nPropNumber","nPropValue","nPropDigits","CombinedUncertainty"]}],"tml_elements":["PropertyValue"],"VariableValue":[]}],"eReactionType":"Combustion with oxygen","Participant":[{"ePhase":"Liquid","tml_elements":["RegNum","nSampleNm","nStoichiometricCoef","ePhase"],"RegNum":{"nOrgNum":7,"tml_elements":["nOrgNum"]},"nSampleNm":1,"nStoichiometricCoef":"-1"},{"ePhase":"Ideal gas","tml_elements":["RegNum","nStoichiometricCoef","ePhase"],"nStoichiometricCoef":"5","RegNum":{"tml_elements":["nOrgNum"],"nOrgNum":1}},{"tml_elements":["RegNum","nStoichiometricCoef","ePhase"],"ePhase":"Liquid","nStoichiometricCoef":"2","RegNum":{"tml_elements":["nOrgNum"],"nOrgNum":3}},{"ePhase":"Ideal gas","tml_elements":["RegNum","nStoichiometricCoef","ePhase"],"nStoichiometricCoef":"-5","RegNum":{"nOrgNum":4,"tml_elements":["nOrgNum"]}}],"tml_elements":["nReactionDataNumber","Participant","eExpPurpose","sCompiler","sContributor","dateDateAdded","eReactionType","Property","NumValues"],"nReactionDataNumber":3,"sContributor":"TRC"}],"PureOrMixtureData":[{"Property":[{"CombinedUncertainty":{"nCombUncertAssessNum":1,"sCombUncertEvaluator":"Data file compiler","tml_elements":["nCombUncertAssessNum","sCombUncertEvaluator","eCombUncertEvalMethod","nCombUncertLevOfConfid"],"eCombUncertEvalMethod":"Propagation of evaluated standard uncertainties","nCombUncertLevOfConfid":95},"Property-MethodID":{"PropertyGroup":{"PhaseTransition":{"tml_elements":["ePropName","eMethodName"],"eMethodName":"Static calorimetry","ePropName":"Molar enthalpy of vaporization or sublimation, kJ/mol"},"tml_elements":["PhaseTransition"]},"tml_elements":["PropertyGroup"]},"nPropNumber":1,"PropPhaseID":{"ePropPhase":"Liquid","tml_elements":["ePropPhase"]},"tml_elements":["nPropNumber","Property-MethodID","PropPhaseID","ePresentation","CombinedUncertainty"],"ePresentation":"Direct value, X"}],"eExpPurpose":"Principal objective of the work","nPureOrMixtureDataNumber":1,"dateDateAdded":"3/13/2009","sCompiler":"JFK","NumValues":[{"PropertyValue":[{"CombinedUncertainty":{"nCombExpandUncertValue":0.8,"tml_elements":["nCombUncertAssessNum","nCombExpandUncertValue"],"nCombUncertAssessNum":1},"nPropValue":44.8,"tml_elements":["nPropNumber","nPropValue","nPropDigits","CombinedUncertainty"],"nPropNumber":1,"nPropDigits":3}],"tml_elements":["VariableValue","PropertyValue"],"VariableValue":[{"nVarNumber":1,"tml_elements":["nVarNumber","nVarValue","nVarDigits"],"nVarDigits":5,"nVarValue":298.15}]}],"tml_elements":["nPureOrMixtureDataNumber","Component","eExpPurpose","sCompiler","sContributor","dateDateAdded","Property","PhaseID","Variable","NumValues"],"PhaseID":[{"tml_elements":["ePhase"],"ePhase":"Liquid"},{"ePhase":"Gas","tml_elements":["ePhase"]}],"Component":[{"tml_elements":["RegNum","nSampleNm"],"nSampleNm":1,"RegNum":{"tml_elements":["nOrgNum"],"nOrgNum":5}}],"sContributor":"TRC","Variable":[{"VariableID":{"VariableType":{"tml_elements":["eTemperature"],"eTemperature":"Temperature, K"},"tml_elements":["VariableType"]},"VarPhaseID":{"eVarPhase":"Liquid","tml_elements":["eVarPhase"]},"nVarNumber":1,"tml_elements":["nVarNumber","VariableID","VarPhaseID"]}]},{"NumValues":[{"VariableValue":[{"nVarValue":329,"tml_elements":["nVarNumber","nVarValue","nVarDigits"],"nVarDigits":3,"nVarNumber":1},{"tml_elements":["nVarNumber","nVarValue","nVarDigits"],"nVarDigits":1,"nVarNumber":2,"nVarValue":100}],"tml_elements":["VariableValue","PropertyValue"],"PropertyValue":[{"CombinedUncertainty":{"nCombUncertAssessNum":1,"tml_elements":["nCombUncertAssessNum","nCombExpandUncertValue"],"nCombExpandUncertValue":0.8},"nPropValue":47.8,"nPropDigits":3,"nPropNumber":1,"tml_elements":["nPropNumber","nPropValue","nPropDigits","CombinedUncertainty"]}]}],"nPureOrMixtureDataNumber":2,"dateDateAdded":"3/13/2009","sCompiler":"JFK","Property":[{"nRefTempDigits":5,"tml_elements":["nPropNumber","Property-MethodID","PropPhaseID","ePresentation","eRefStateType","nRefTemp","nRefTempDigits","nRefPressure","nRefPressureDigits","RefPhaseID","CombinedUncertainty"],"PropPhaseID":{"ePropPhase":"Gas","tml_elements":["ePropPhase"]},"nPropNumber":1,"CombinedUncertainty":{"nCombUncertAssessNum":1,"sCombUncertEvaluator":"Data file compiler","tml_elements":["nCombUncertAssessNum","sCombUncertEvaluator","eCombUncertEvalMethod","nCombUncertLevOfConfid"],"eCombUncertEvalMethod":"Propagation of evaluated standard uncertainties","nCombUncertLevOfConfid":95},"nRefPressure":"100","eRefStateType":"Reference phase with the same composition at fixed temperature and pressure","ePresentation":"Difference with the reference state, X-X(REF)","nRefTemp":"298.15","nRefPressureDigits":1,"Property-MethodID":{"tml_elements":["PropertyGroup"],"PropertyGroup":{"tml_elements":["HeatCapacityAndDerivedProp"],"HeatCapacityAndDerivedProp":{"tml_elements":["ePropName","sMethodName"],"ePropName":"Molar enthalpy, kJ/mol","sMethodName":"Calvet-Micro Calorimetry"}}},"RefPhaseID":{"eRefPhase":"Liquid","tml_elements":["eRefPhase"]}}],"eExpPurpose":"Principal objective of the work","sContributor":"TRC","Variable":[{"VariableID":{"VariableType":{"eTemperature":"Temperature, K","tml_elements":["eTemperature"]},"tml_elements":["VariableType"]},"tml_elements":["nVarNumber","VariableID","VarPhaseID"],"VarPhaseID":{"eVarPhase":"Gas","tml_elements":["eVarPhase"]},"nVarNumber":1},{"VariableID":{"VariableType":{"tml_elements":["ePressure"],"ePressure":"Pressure, kPa"},"tml_elements":["VariableType"]},"tml_elements":["nVarNumber","VariableID","VarPhaseID"],"VarPhaseID":{"tml_elements":["eVarPhase"],"eVarPhase":"Gas"},"nVarNumber":2}],"Component":[{"nSampleNm":1,"RegNum":{"tml_elements":["nOrgNum"],"nOrgNum":5},"tml_elements":["RegNum","nSampleNm"]}],"tml_elements":["nPureOrMixtureDataNumber","Component","eExpPurpose","sCompiler","sContributor","dateDateAdded","Property","PhaseID","Variable","NumValues"],"PhaseID":[{"ePhase":"Gas","tml_elements":["ePhase"]}]},{"Property":[{"CombinedUncertainty":{"nCombUncertLevOfConfid":95,"eCombUncertEvalMethod":"Propagation of evaluated standard uncertainties","tml_elements":["nCombUncertAssessNum","sCombUncertEvaluator","eCombUncertEvalMethod","nCombUncertLevOfConfid"],"sCombUncertEvaluator":"Data file compiler","nCombUncertAssessNum":1},"nPropNumber":1,"Property-MethodID":{"PropertyGroup":{"tml_elements":["PhaseTransition"],"PhaseTransition":{"tml_elements":["ePropName","eMethodName"],"ePropName":"Molar enthalpy of vaporization or sublimation, kJ/mol","eMethodName":"Static calorimetry"}},"tml_elements":["PropertyGroup"]},"PropPhaseID":{"tml_elements":["ePropPhase"],"ePropPhase":"Liquid"},"tml_elements":["nPropNumber","Property-MethodID","PropPhaseID","ePresentation","CombinedUncertainty"],"ePresentation":"Direct value, X"}],"eExpPurpose":"Principal objective of the work","dateDateAdded":"3/13/2009","nPureOrMixtureDataNumber":3,"sCompiler":"JFK","NumValues":[{"PropertyValue":[{"CombinedUncertainty":{"nCombUncertAssessNum":1,"nCombExpandUncertValue":1.2,"tml_elements":["nCombUncertAssessNum","nCombExpandUncertValue"]},"nPropValue":53,"tml_elements":["nPropNumber","nPropValue","nPropDigits","CombinedUncertainty"],"nPropNumber":1,"nPropDigits":2}],"tml_elements":["VariableValue","PropertyValue"],"VariableValue":[{"tml_elements":["nVarNumber","nVarValue","nVarDigits"],"nVarDigits":5,"nVarNumber":1,"nVarValue":298.15}]}],"tml_elements":["nPureOrMixtureDataNumber","Component","eExpPurpose","sCompiler","sContributor","dateDateAdded","Property","PhaseID","Variable","NumValues"],"PhaseID":[{"ePhase":"Liquid","tml_elements":["ePhase"]},{"tml_elements":["ePhase"],"ePhase":"Gas"}],"Component":[{"tml_elements":["RegNum","nSampleNm"],"nSampleNm":1,"RegNum":{"tml_elements":["nOrgNum"],"nOrgNum":6}}],"sContributor":"TRC","Variable":[{"VariableID":{"tml_elements":["VariableType"],"VariableType":{"tml_elements":["eTemperature"],"eTemperature":"Temperature, K"}},"nVarNumber":1,"VarPhaseID":{"eVarPhase":"Liquid","tml_elements":["eVarPhase"]},"tml_elements":["nVarNumber","VariableID","VarPhaseID"]}]},{"Component":[{"tml_elements":["RegNum","nSampleNm"],"nSampleNm":1,"RegNum":{"nOrgNum":6,"tml_elements":["nOrgNum"]}}],"Variable":[{"VariableID":{"tml_elements":["VariableType"],"VariableType":{"eTemperature":"Temperature, K","tml_elements":["eTemperature"]}},"nVarNumber":1,"VarPhaseID":{"tml_elements":["eVarPhase"],"eVarPhase":"Gas"},"tml_elements":["nVarNumber","VariableID","VarPhaseID"]},{"VarPhaseID":{"tml_elements":["eVarPhase"],"eVarPhase":"Gas"},"nVarNumber":2,"tml_elements":["nVarNumber","VariableID","VarPhaseID"],"VariableID":{"tml_elements":["VariableType"],"VariableType":{"ePressure":"Pressure, kPa","tml_elements":["ePressure"]}}}],"eExpPurpose":"Principal objective of the work","Property":[{"Property-MethodID":{"tml_elements":["PropertyGroup"],"PropertyGroup":{"HeatCapacityAndDerivedProp":{"sMethodName":"Calvet-Micro Calorimetry","ePropName":"Molar enthalpy, kJ/mol","tml_elements":["ePropName","sMethodName"]},"tml_elements":["HeatCapacityAndDerivedProp"]}},"RefPhaseID":{"tml_elements":["eRefPhase"],"eRefPhase":"Liquid"},"nRefPressure":"100","nRefPressureDigits":1,"eRefStateType":"Reference phase with the same composition at fixed temperature and pressure","CombinedUncertainty":{"nCombUncertAssessNum":1,"sCombUncertEvaluator":"Data file compiler","tml_elements":["nCombUncertAssessNum","sCombUncertEvaluator","eCombUncertEvalMethod","nCombUncertLevOfConfid"],"nCombUncertLevOfConfid":95,"eCombUncertEvalMethod":"Propagation of evaluated standard uncertainties"},"nRefTemp":"298.15","PropPhaseID":{"tml_elements":["ePropPhase"],"ePropPhase":"Gas"},"nPropNumber":1,"ePresentation":"Difference with the reference state, X-X(REF)","tml_elements":["nPropNumber","Property-MethodID","PropPhaseID","ePresentation","eRefStateType","nRefTemp","nRefTempDigits","nRefPressure","nRefPressureDigits","RefPhaseID","CombinedUncertainty"],"nRefTempDigits":5}],"NumValues":[{"VariableValue":[{"nVarDigits":2,"tml_elements":["nVarNumber","nVarValue","nVarDigits"],"nVarNumber":1,"nVarValue":350},{"nVarValue":100,"tml_elements":["nVarNumber","nVarValue","nVarDigits"],"nVarDigits":1,"nVarNumber":2}],"PropertyValue":[{"tml_elements":["nPropNumber","nPropValue","nPropDigits","CombinedUncertainty"],"nPropDigits":3,"nPropNumber":1,"nPropValue":59.8,"CombinedUncertainty":{"nCombUncertAssessNum":1,"tml_elements":["nCombUncertAssessNum","nCombExpandUncertValue"],"nCombExpandUncertValue":1.2}}],"tml_elements":["VariableValue","PropertyValue"]}],"sCompiler":"JFK","dateDateAdded":"3/13/2009","nPureOrMixtureDataNumber":4,"PhaseID":[{"ePhase":"Gas","tml_elements":["ePhase"]}],"tml_elements":["nPureOrMixtureDataNumber","Component","eExpPurpose","sCompiler","sContributor","dateDateAdded","Property","PhaseID","Variable","NumValues"],"sContributor":"TRC"},{"Component":[{"nSampleNm":1,"RegNum":{"tml_elements":["nOrgNum"],"nOrgNum":7},"tml_elements":["RegNum","nSampleNm"]}],"PhaseID":[{"tml_elements":["ePhase"],"ePhase":"Liquid"},{"ePhase":"Gas","tml_elements":["ePhase"]}],"tml_elements":["nPureOrMixtureDataNumber","Component","eExpPurpose","sCompiler","sContributor","dateDateAdded","Property","PhaseID","Variable","NumValues"],"Variable":[{"VariableID":{"VariableType":{"eTemperature":"Temperature, K","tml_elements":["eTemperature"]},"tml_elements":["VariableType"]},"VarPhaseID":{"eVarPhase":"Liquid","tml_elements":["eVarPhase"]},"nVarNumber":1,"tml_elements":["nVarNumber","VariableID","VarPhaseID"]}],"sContributor":"TRC","eExpPurpose":"Principal objective of the work","Property":[{"PropPhaseID":{"ePropPhase":"Liquid","tml_elements":["ePropPhase"]},"nPropNumber":1,"ePresentation":"Direct value, X","tml_elements":["nPropNumber","Property-MethodID","PropPhaseID","ePresentation","CombinedUncertainty"],"CombinedUncertainty":{"tml_elements":["nCombUncertAssessNum","sCombUncertEvaluator","eCombUncertEvalMethod","nCombUncertLevOfConfid"],"nCombUncertLevOfConfid":95,"eCombUncertEvalMethod":"Propagation of evaluated standard uncertainties","nCombUncertAssessNum":1,"sCombUncertEvaluator":"Data file compiler"},"Property-MethodID":{"PropertyGroup":{"tml_elements":["PhaseTransition"],"PhaseTransition":{"ePropName":"Molar enthalpy of vaporization or sublimation, kJ/mol","eMethodName":"Static calorimetry","tml_elements":["ePropName","eMethodName"]}},"tml_elements":["PropertyGroup"]}}],"NumValues":[{"PropertyValue":[{"nPropValue":48.1,"CombinedUncertainty":{"tml_elements":["nCombUncertAssessNum","nCombExpandUncertValue"],"nCombExpandUncertValue":1,"nCombUncertAssessNum":1},"tml_elements":["nPropNumber","nPropValue","nPropDigits","CombinedUncertainty"],"nPropDigits":3,"nPropNumber":1}],"tml_elements":["VariableValue","PropertyValue"],"VariableValue":[{"nVarNumber":1,"nVarDigits":5,"tml_elements":["nVarNumber","nVarValue","nVarDigits"],"nVarValue":298.15}]}],"sCompiler":"JFK","dateDateAdded":"3/13/2009","nPureOrMixtureDataNumber":5},{"sContributor":"TRC","Variable":[{"VariableID":{"VariableType":{"tml_elements":["eTemperature"],"eTemperature":"Temperature, K"},"tml_elements":["VariableType"]},"VarPhaseID":{"tml_elements":["eVarPhase"],"eVarPhase":"Gas"},"nVarNumber":1,"tml_elements":["nVarNumber","VariableID","VarPhaseID"]},{"nVarNumber":2,"VarPhaseID":{"eVarPhase":"Gas","tml_elements":["eVarPhase"]},"tml_elements":["nVarNumber","VariableID","VarPhaseID"],"VariableID":{"VariableType":{"tml_elements":["ePressure"],"ePressure":"Pressure, kPa"},"tml_elements":["VariableType"]}}],"Component":[{"tml_elements":["RegNum","nSampleNm"],"RegNum":{"nOrgNum":7,"tml_elements":["nOrgNum"]},"nSampleNm":1}],"tml_elements":["nPureOrMixtureDataNumber","Component","eExpPurpose","sCompiler","sContributor","dateDateAdded","Property","PhaseID","Variable","NumValues"],"PhaseID":[{"tml_elements":["ePhase"],"ePhase":"Gas"}],"NumValues":[{"VariableValue":[{"nVarDigits":3,"tml_elements":["nVarNumber","nVarValue","nVarDigits"],"nVarNumber":1,"nVarValue":329},{"nVarValue":100,"nVarDigits":1,"tml_elements":["nVarNumber","nVarValue","nVarDigits"],"nVarNumber":2}],"tml_elements":["VariableValue","PropertyValue"],"PropertyValue":[{"nPropValue":51.2,"CombinedUncertainty":{"nCombUncertAssessNum":1,"tml_elements":["nCombUncertAssessNum","nCombExpandUncertValue"],"nCombExpandUncertValue":1},"tml_elements":["nPropNumber","nPropValue","nPropDigits","CombinedUncertainty"],"nPropNumber":1,"nPropDigits":3}]}],"dateDateAdded":"3/13/2009","nPureOrMixtureDataNumber":6,"sCompiler":"JFK","Property":[{"nRefTempDigits":5,"PropPhaseID":{"ePropPhase":"Gas","tml_elements":["ePropPhase"]},"nPropNumber":1,"ePresentation":"Difference with the reference state, X-X(REF)","tml_elements":["nPropNumber","Property-MethodID","PropPhaseID","ePresentation","eRefStateType","nRefTemp","nRefTempDigits","nRefPressure","nRefPressureDigits","RefPhaseID","CombinedUncertainty"],"CombinedUncertainty":{"tml_elements":["nCombUncertAssessNum","sCombUncertEvaluator","eCombUncertEvalMethod","nCombUncertLevOfConfid"],"nCombUncertLevOfConfid":95,"eCombUncertEvalMethod":"Propagation of evaluated standard uncertainties","nCombUncertAssessNum":1,"sCombUncertEvaluator":"Data file compiler"},"nRefTemp":"298.15","Property-MethodID":{"tml_elements":["PropertyGroup"],"PropertyGroup":{"tml_elements":["HeatCapacityAndDerivedProp"],"HeatCapacityAndDerivedProp":{"tml_elements":["ePropName","sMethodName"],"ePropName":"Molar enthalpy, kJ/mol","sMethodName":"Calvet-Micro Calorimetry"}}},"RefPhaseID":{"eRefPhase":"Liquid","tml_elements":["eRefPhase"]},"nRefPressure":"100","nRefPressureDigits":1,"eRefStateType":"Reference phase with the same composition at fixed temperature and pressure"}],"eExpPurpose":"Principal objective of the work"}],"THERMOML_MD5_CHECKSUM":"5b1af5a6a0f2acddf8b234e3271fc6c1","Compound":[{"sStandardInChI":"InChI=1S/CO2/c2-1-3","RegNum":{"tml_elements":["nOrgNum"],"nOrgNum":1},"sStandardInChIKey":"CURLTUGMZLYLDI-UHFFFAOYSA-N","sCommonName":["carbon dioxide"],"tml_elements":["RegNum","sStandardInChI","sStandardInChIKey","sCommonName","sFormulaMolec"],"sFormulaMolec":"CO2"},{"sFormulaMolec":"N2","sCommonName":["nitrogen"],"tml_elements":["RegNum","sStandardInChI","sStandardInChIKey","sCommonName","sFormulaMolec"],"sStandardInChI":"InChI=1S/N2/c1-2","RegNum":{"tml_elements":["nOrgNum"],"nOrgNum":2},"sStandardInChIKey":"IJGRMHOSHXDMSA-UHFFFAOYSA-N"},{"sFormulaMolec":"H2O","sCommonName":["water"],"tml_elements":["RegNum","sStandardInChI","sStandardInChIKey","sCommonName","sFormulaMolec"],"sStandardInChIKey":"XLYOFNOQVPJJNP-UHFFFAOYSA-N","RegNum":{"tml_elements":["nOrgNum"],"nOrgNum":3},"sStandardInChI":"InChI=1S/H2O/h1H2"},{"sCommonName":["oxygen"],"tml_elements":["RegNum","sStandardInChI","sStandardInChIKey","sCommonName","sFormulaMolec"],"sFormulaMolec":"O2","RegNum":{"tml_elements":["nOrgNum"],"nOrgNum":4},"sStandardInChI":"InChI=1S/O2/c1-2","sStandardInChIKey":"MYMOFIZGZYHOMD-UHFFFAOYSA-N"},{"sFormulaMolec":"C5H3NO","sCommonName":["2-cyanofuran","2-furonitrile"],"tml_elements":["RegNum","sStandardInChI","sStandardInChIKey","sCommonName","sFormulaMolec","Sample"],"Sample":[{"tml_elements":["nSampleNm","eSource","purity"],"purity":[{"eAnalMeth":["Stated by supplier"],"nPurityMass":99,"nStep":1,"tml_elements":["nStep","nPurityMass","nPurityMassDigits","eAnalMeth"],"nPurityMassDigits":2},{"nStep":2,"tml_elements":["nStep","ePurifMethod"],"ePurifMethod":["Fractional distillation"]},{"eAnalMeth":["Estimated by the compiler"],"nStep":3,"tml_elements":["nStep","nUnknownPerCent","nUnknownPerCentDigits","eAnalMeth"],"nUnknownPerCentDigits":2,"nUnknownPerCent":99}],"nSampleNm":1,"eSource":"Commercial source"}],"sStandardInChIKey":"YXDXXGXWFJCXEB-UHFFFAOYSA-N","RegNum":{"nOrgNum":5,"tml_elements":["nOrgNum"]},"sStandardInChI":"InChI=1S/C5H3NO/c6-4-5-2-1-3-7-5/h1-3H"},{"sFormulaMolec":"C6H6O2","sCommonName":["2-acetylfuran","2-furyl methyl ketone","furyl methyl ketone"],"Sample":[{"nSampleNm":1,"eSource":"Commercial source","tml_elements":["nSampleNm","eSource","purity"],"purity":[{"eAnalMeth":["Stated by supplier"],"nPurityMass":99,"nStep":1,"nPurityMassDigits":2,"tml_elements":["nStep","nPurityMass","nPurityMassDigits","eAnalMeth"]},{"ePurifMethod":["Fractional distillation"],"nStep":2,"tml_elements":["nStep","ePurifMethod"]},{"nUnknownPerCent":99,"nUnknownPerCentDigits":2,"tml_elements":["nStep","nUnknownPerCent","nUnknownPerCentDigits","eAnalMeth"],"nStep":3,"eAnalMeth":["Estimated by the compiler"]}]}],"tml_elements":["RegNum","sStandardInChI","sStandardInChIKey","sCommonName","sFormulaMolec","Sample"],"sStandardInChIKey":"IEMMBWWQXVXBEU-UHFFFAOYSA-N","RegNum":{"tml_elements":["nOrgNum"],"nOrgNum":6},"sStandardInChI":"InChI=1S/C6H6O2/c1-5(7)6-3-2-4-8-6/h2-4H,1H3"},{"RegNum":{"tml_elements":["nOrgNum"],"nOrgNum":7},"sStandardInChI":"InChI=1S/C5H4O2/c6-3-5-1-2-7-4-5/h1-4H","sStandardInChIKey":"AZVSIHIBYRHSLB-UHFFFAOYSA-N","sFormulaMolec":"C5H4O2","sCommonName":["3-furaldehyde","3-furfuraldehyde"],"Sample":[{"nSampleNm":1,"eSource":"Commercial source","purity":[{"eAnalMeth":["Stated by supplier"],"nPurityMass":97,"nPurityMassDigits":2,"tml_elements":["nStep","nPurityMass","nPurityMassDigits","eAnalMeth"],"nStep":1},{"ePurifMethod":["Fractional distillation"],"tml_elements":["nStep","ePurifMethod"],"nStep":2},{"nUnknownPerCentDigits":2,"nUnknownPerCent":99,"eAnalMeth":["Estimated by the compiler"],"nStep":3,"tml_elements":["nStep","nUnknownPerCent","nUnknownPerCentDigits","eAnalMeth"]}],"tml_elements":["nSampleNm","eSource","purity"]}],"tml_elements":["RegNum","sStandardInChI","sStandardInChIKey","sCommonName","sFormulaMolec","Sample"]}]}