{"Version":{"tml_elements":["nVersionMajor","nVersionMinor"],"nVersionMinor":0,"nVersionMajor":2},"tml_elements":["Version","Citation","Compound","ReactionData"],"ReactionData":[{"Property":[{"nPressureDigits":3,"nPressure-kPa":"101","CombinedUncertainty":{"sCombUncertEvaluator":"Data file compiler","nCombUncertAssessNum":1,"eCombUncertEvalMethod":"Propagation of evaluated standard uncertainties","nCombUncertLevOfConfid":95,"tml_elements":["nCombUncertAssessNum","sCombUncertEvaluator","eCombUncertEvalMethod","nCombUncertLevOfConfid"]},"nTemperature-K":"298.15","nTemperatureDigits":5,"Property-MethodID":{"tml_elements":["PropertyGroup"],"PropertyGroup":{"tml_elements":["ReactionStateChangeProp"],"ReactionStateChangeProp":{"tml_elements":["ePropName","eMethodName"],"ePropName":"Specific internal energy of reaction at constant volume, J/g","eMethodName":"Static bomb calorimetry"}}},"tml_elements":["nPropNumber","Property-MethodID","nTemperature-K","nTemperatureDigits","nPressure-kPa","nPressureDigits","CombinedUncertainty"],"nPropNumber":1}],"eExpPurpose":"Principal objective of the work","sCompiler":"MRM","dateDateAdded":"7/13/2012","NumValues":[{"VariableValue":[],"PropertyValue":[{"CombinedUncertainty":{"nCombUncertAssessNum":1,"nCombExpandUncertValue":7.3,"tml_elements":["nCombUncertAssessNum","nCombExpandUncertValue"]},"nPropValue":-18812.8,"tml_elements":["nPropNumber","nPropValue","nPropDigits","CombinedUncertainty"],"nPropNumber":1,"nPropDigits":6}],"tml_elements":["PropertyValue"]}],"eReactionType":"Combustion with oxygen","Participant":[{"ePhase":"Crystal 1","tml_elements":["RegNum","nSampleNm","nStoichiometricCoef","ePhase"],"nSampleNm":1,"nStoichiometricCoef":"-1","RegNum":{"tml_elements":["nOrgNum"],"nOrgNum":5}},{"ePhase":"Ideal gas","tml_elements":["RegNum","nStoichiometricCoef","ePhase"],"RegNum":{"tml_elements":["nOrgNum"],"nOrgNum":1},"nStoichiometricCoef":"5"},{"RegNum":{"tml_elements":["nOrgNum"],"nOrgNum":2},"nStoichiometricCoef":"1","ePhase":"Ideal gas","tml_elements":["RegNum","nStoichiometricCoef","ePhase"]},{"nStoichiometricCoef":"3","RegNum":{"nOrgNum":3,"tml_elements":["nOrgNum"]},"tml_elements":["RegNum","nStoichiometricCoef","ePhase"],"ePhase":"Liquid"},{"nStoichiometricCoef":"-5.5","RegNum":{"tml_elements":["nOrgNum"],"nOrgNum":4},"ePhase":"Ideal gas","tml_elements":["RegNum","nStoichiometricCoef","ePhase"]}],"tml_elements":["nReactionDataNumber","Participant","eExpPurpose","sCompiler","sContributor","dateDateAdded","eReactionType","Property","NumValues"],"nReactionDataNumber":1,"sContributor":"TRC"},{"sContributor":"TRC","nReactionDataNumber":2,"eReactionType":"Combustion with oxygen","tml_elements":["nReactionDataNumber","Participant","eExpPurpose","sCompiler","sContributor","dateDateAdded","eReactionType","Property","NumValues"],"Participant":[{"ePhase":"Crystal","tml_elements":["RegNum","nSampleNm","nStoichiometricCoef","ePhase"],"RegNum":{"nOrgNum":7,"tml_elements":["nOrgNum"]},"nSampleNm":1,"nStoichiometricCoef":"-1"},{"RegNum":{"tml_elements":["nOrgNum"],"nOrgNum":1},"nStoichiometricCoef":"5","ePhase":"Ideal gas","tml_elements":["RegNum","nStoichiometricCoef","ePhase"]},{"tml_elements":["RegNum","nStoichiometricCoef","ePhase"],"ePhase":"Ideal gas","RegNum":{"tml_elements":["nOrgNum"],"nOrgNum":2},"nStoichiometricCoef":"1"},{"tml_elements":["RegNum","nStoichiometricCoef","ePhase"],"ePhase":"Liquid","nStoichiometricCoef":"3","RegNum":{"tml_elements":["nOrgNum"],"nOrgNum":3}},{"nStoichiometricCoef":"-5.5","RegNum":{"nOrgNum":4,"tml_elements":["nOrgNum"]},"tml_elements":["RegNum","nStoichiometricCoef","ePhase"],"ePhase":"Ideal gas"}],"NumValues":[{"VariableValue":[],"PropertyValue":[{"nPropNumber":1,"nPropDigits":6,"tml_elements":["nPropNumber","nPropValue","nPropDigits","CombinedUncertainty"],"CombinedUncertainty":{"tml_elements":["nCombUncertAssessNum","nCombExpandUncertValue"],"nCombExpandUncertValue":9.1,"nCombUncertAssessNum":1},"nPropValue":-18657.4}],"tml_elements":["PropertyValue"]}],"sCompiler":"MRM","dateDateAdded":"7/13/2012","eExpPurpose":"Principal objective of the work","Property":[{"tml_elements":["nPropNumber","Property-MethodID","nTemperature-K","nTemperatureDigits","nPressure-kPa","nPressureDigits","CombinedUncertainty"],"nPropNumber":1,"nTemperatureDigits":5,"Property-MethodID":{"PropertyGroup":{"tml_elements":["ReactionStateChangeProp"],"ReactionStateChangeProp":{"tml_elements":["ePropName","eMethodName"],"eMethodName":"Static bomb calorimetry","ePropName":"Specific internal energy of reaction at constant volume, J/g"}},"tml_elements":["PropertyGroup"]},"nPressure-kPa":"101","nPressureDigits":3,"nTemperature-K":"298.15","CombinedUncertainty":{"tml_elements":["nCombUncertAssessNum","sCombUncertEvaluator","eCombUncertEvalMethod","nCombUncertLevOfConfid"],"nCombUncertLevOfConfid":95,"eCombUncertEvalMethod":"Propagation of evaluated standard uncertainties","nCombUncertAssessNum":1,"sCombUncertEvaluator":"Data file compiler"}}]},{"NumValues":[{"PropertyValue":[{"nPropValue":-10074.6,"CombinedUncertainty":{"nCombUncertAssessNum":1,"nCombExpandUncertValue":6.2,"tml_elements":["nCombUncertAssessNum","nCombExpandUncertValue"]},"nPropDigits":6,"nPropNumber":1,"tml_elements":["nPropNumber","nPropValue","nPropDigits","CombinedUncertainty"]}],"tml_elements":["PropertyValue"],"VariableValue":[]}],"sCompiler":"MRM","dateDateAdded":"7/13/2012","Property":[{"nPressureDigits":3,"nPressure-kPa":"101","CombinedUncertainty":{"tml_elements":["nCombUncertAssessNum","sCombUncertEvaluator","eCombUncertEvalMethod","nCombUncertLevOfConfid"],"eCombUncertEvalMethod":"Propagation of evaluated standard uncertainties","nCombUncertLevOfConfid":95,"nCombUncertAssessNum":1,"sCombUncertEvaluator":"Data file compiler"},"nTemperature-K":"298.15","nTemperatureDigits":5,"Property-MethodID":{"PropertyGroup":{"tml_elements":["ReactionStateChangeProp"],"ReactionStateChangeProp":{"tml_elements":["ePropName","eMethodName"],"ePropName":"Specific internal energy of reaction at constant volume, J/g","eMethodName":"Static bomb calorimetry"}},"tml_elements":["PropertyGroup"]},"tml_elements":["nPropNumber","Property-MethodID","nTemperature-K","nTemperatureDigits","nPressure-kPa","nPressureDigits","CombinedUncertainty"],"nPropNumber":1}],"eExpPurpose":"Principal objective of the work","sContributor":"TRC","nReactionDataNumber":3,"eReactionType":"Combustion with oxygen","tml_elements":["nReactionDataNumber","Participant","eExpPurpose","sCompiler","sContributor","dateDateAdded","eReactionType","Property","NumValues"],"Participant":[{"tml_elements":["RegNum","nSampleNm","nStoichiometricCoef","ePhase"],"ePhase":"Crystal","nStoichiometricCoef":"-1","nSampleNm":1,"RegNum":{"tml_elements":["nOrgNum"],"nOrgNum":6}},{"RegNum":{"tml_elements":["nOrgNum"],"nOrgNum":1},"nStoichiometricCoef":"4","tml_elements":["RegNum","nStoichiometricCoef","ePhase"],"ePhase":"Ideal gas"},{"RegNum":{"tml_elements":["nOrgNum"],"nOrgNum":2},"nStoichiometricCoef":"1.5","ePhase":"Ideal gas","tml_elements":["RegNum","nStoichiometricCoef","ePhase"]},{"ePhase":"Liquid","tml_elements":["RegNum","nStoichiometricCoef","ePhase"],"nStoichiometricCoef":"1.5","RegNum":{"tml_elements":["nOrgNum"],"nOrgNum":3}},{"nStoichiometricCoef":"-2.75","RegNum":{"tml_elements":["nOrgNum"],"nOrgNum":4},"ePhase":"Ideal gas","tml_elements":["RegNum","nStoichiometricCoef","ePhase"]}]}],"THERMOML_MD5_CHECKSUM":"cfd8581f32fcce57a9b4af1a3ba8b11d","Compound":[{"sStandardInChI":"InChI=1S/CO2/c2-1-3","RegNum":{"tml_elements":["nOrgNum"],"nOrgNum":1},"sStandardInChIKey":"CURLTUGMZLYLDI-UHFFFAOYSA-N","tml_elements":["RegNum","sStandardInChI","sStandardInChIKey","sCommonName","sFormulaMolec"],"sCommonName":["carbon dioxide"],"sFormulaMolec":"CO2"},{"sCommonName":["nitrogen"],"tml_elements":["RegNum","sStandardInChI","sStandardInChIKey","sCommonName","sFormulaMolec"],"sFormulaMolec":"N2","sStandardInChIKey":"IJGRMHOSHXDMSA-UHFFFAOYSA-N","sStandardInChI":"InChI=1S/N2/c1-2","RegNum":{"nOrgNum":2,"tml_elements":["nOrgNum"]}},{"sStandardInChI":"InChI=1S/H2O/h1H2","RegNum":{"tml_elements":["nOrgNum"],"nOrgNum":3},"sStandardInChIKey":"XLYOFNOQVPJJNP-UHFFFAOYSA-N","sFormulaMolec":"H2O","tml_elements":["RegNum","sStandardInChI","sStandardInChIKey","sCommonName","sFormulaMolec"],"sCommonName":["water"]},{"tml_elements":["RegNum","sStandardInChI","sStandardInChIKey","sCommonName","sFormulaMolec"],"sCommonName":["oxygen"],"sFormulaMolec":"O2","sStandardInChIKey":"MYMOFIZGZYHOMD-UHFFFAOYSA-N","RegNum":{"tml_elements":["nOrgNum"],"nOrgNum":4},"sStandardInChI":"InChI=1S/O2/c1-2"},{"sFormulaMolec":"C5H6N2O2","Sample":[{"nSampleNm":1,"eSource":"Commercial source","purity":[{"ePurifMethod":["Sublimation"],"nStep":1,"tml_elements":["nStep","ePurifMethod"]},{"nPurityMass":99.97,"eAnalMeth":["CO2 yield in combustion products"],"nPurityMassDigits":4,"tml_elements":["nStep","nPurityMass","nPurityMassDigits","eAnalMeth"],"nStep":2}],"tml_elements":["nSampleNm","eSource","purity"]}],"sCommonName":["thymine","2,4-dihydroxy-5-methylpyrimidine","5-methyl-2,4-dihydroxypyrimidine","5-methylpyrimidine-2,4(1H,3H)-dione","5-methyluracil"],"tml_elements":["RegNum","sStandardInChI","sStandardInChIKey","sCommonName","sFormulaMolec","Sample"],"sStandardInChIKey":"RWQNBRDOKXIBIV-UHFFFAOYSA-N","RegNum":{"tml_elements":["nOrgNum"],"nOrgNum":5},"sStandardInChI":"InChI=1S/C5H6N2O2/c1-3-2-6-5(9)7-4(3)8/h2H,1H3,(H2,6,7,8,9)"},{"sStandardInChIKey":"TUARVSWVPPVUGS-UHFFFAOYSA-N","RegNum":{"nOrgNum":6,"tml_elements":["nOrgNum"]},"sStandardInChI":"InChI=1S/C4H3N3O4/c8-3-2(7(10)11)1-5-4(9)6-3/h1H,(H2,5,6,8,9)","sFormulaMolec":"C4H3N3O4","tml_elements":["RegNum","sStandardInChI","sStandardInChIKey","sCommonName","sFormulaMolec","Sample"],"Sample":[{"tml_elements":["nSampleNm","eSource","purity"],"purity":[{"ePurifMethod":["Dried by vacuum heating","Fractional crystallization"],"tml_elements":["nStep","ePurifMethod","ePurifMethod"],"nStep":1},{"nStep":2,"nPurityMassDigits":4,"tml_elements":["nStep","nPurityMass","nPurityMassDigits","eAnalMeth"],"nPurityMass":99.89,"eAnalMeth":["CO2 yield in combustion products"]}],"eSource":"Commercial source","nSampleNm":1}],"sCommonName":["2,4-pyrimidinedione, 5-nitro-","5-nitro-2,4-pyrimidinedione","5-nitrouracil"]},{"Sample":[{"tml_elements":["nSampleNm","eSource","purity"],"purity":[{"tml_elements":["nStep","ePurifMethod","ePurifMethod"],"nStep":1,"ePurifMethod":["Dried by vacuum heating","Fractional crystallization"]},{"tml_elements":["nStep","nPurityMass","nPurityMassDigits","eAnalMeth"],"nPurityMassDigits":4,"nStep":2,"eAnalMeth":["CO2 yield in combustion products"],"nPurityMass":99.99}],"nSampleNm":1,"eSource":"Commercial source"}],"tml_elements":["RegNum","sStandardInChI","sStandardInChIKey","sCommonName","sFormulaMolec","Sample"],"sCommonName":["2,4-dihydroxy-6-methylpyrimidine","6-methyluracil"],"sFormulaMolec":"C5H6N2O2","sStandardInChIKey":"SHVCSCWHWMSGTE-UHFFFAOYSA-N","RegNum":{"tml_elements":["nOrgNum"],"nOrgNum":7},"sStandardInChI":"InChI=1S/C5H6N2O2/c1-3-2-4(8)7-5(9)6-3/h2H,1H3,(H2,6,7,8,9)"}],"Citation":{"sVol":"43","eType":"journal","sPage":"1924-1927","sPubName":"J. Chem. Thermodyn.","yrPubYr":"2011","sIDNum":"12","dateCit":"2020-09-29","tml_elements":["TRCRefID","eType","eSourceType","sAuthor","sPubName","yrPubYr","dateCit","sTitle","sAbstract","sKeyword","sDOI","sIDNum","sVol","sPage"],"sAuthor":["da Silva, M. A. V. R.[Manuel A. V. Ribeiro]","Amaral, L. M. P. F.[Luisa M. P. F.]","Szterner, P.[Piotr]"],"sKeyword":["Combustion calorimetry","Energy of combustion","Enthalpy of formation","5-Methyluracil","6-Methyluracil","5-Nitrouracil"],"TRCRefID":{"tml_elements":["yrYrPub","sAuthor1","sAuthor2","nAuthorn"],"nAuthorn":"1","sAuthor1":"das","sAuthor2":"ama","yrYrPub":"2011"},"sAbstract":"The standard (p  = 0.1 MPa) molar enthalpies of formation, in the crystalline phase, at T = 298.15 K, for  5-methyluracil, 6-methyluracil, and 5-nitrouracil were derived from the values of the standard massic energies of combustion measured by static bomb combustion calorimetry. The results obtained together with literature values of the enthalpies of sublimation yielded the standard molar enthalpies of formation, in gaseous phase, at T = 298.15 K. These values are discussed in the terms of structural enthalpic increments.","sDOI":"10.1016/j.jct.2011.06.023","sTitle":"Thermochemical study of 5-methyluracil, 6-methyluracil, and 5-nitrouracil","eSourceType":"Original"}}