{"Citation":{"yrPubYr":"2006","sPubName":"J. Chem. Thermodyn.","dateCit":"2020-09-29","sIDNum":"8","sPage":"1008-1012","eType":"journal","sVol":"38","eSourceType":"Original","sAbstract":"The standard (p0 = 0.1 MPa) molar energies of combustion in oxygen of 2-piperidinemethanol, 3-piperidinemethanol, and 4-piperidinemethanol, all in the crystalline phase, were measured, at T = 298.15 K, by static bomb calorimetry. These values were used to derive the standard molar enthalpies of combustion and the standard molar enthalpies of formation, in the condensed phase, for these compounds. Further, the standard molar enthalpies of sublimation, at T = 298.15 K, of these three piperidinomethanol isomers were determined by Cavet microcalorimetry. The combustion calorimetry results together with those from the Calvet microcalorimetry, were used to derive the standard molar enthalpies of formation, at T = 298.15 K, in the gaseous phase, of the three piperidinemethanol studied.","TRCRefID":{"nAuthorn":"1","tml_elements":["yrYrPub","sAuthor1","sAuthor2","nAuthorn"],"sAuthor1":"rib","sAuthor2":"cab","yrYrPub":"2006"},"sTitle":"Standard molar enthalpies of formation of 2-, 3-, and 4-piperidinomethanol isomers","sDOI":"10.1016/j.jct.2005.10.014","tml_elements":["TRCRefID","eType","eSourceType","sAuthor","sPubName","yrPubYr","dateCit","sTitle","sAbstract","sKeyword","sDOI","sIDNum","sVol","sPage"],"sAuthor":["Ribeiro da Silva, M. A. V.[Manuel A. V.]","Cabral, J. I. T. A.[Joana I. T. A.]"],"sKeyword":["Combustion calorimetry","Calvet microcalorimetry","Enthalpy of combustion","Enthalpy of sublimation","Enthalpy of formation","2-Piperidinemethanol","3-Piperidinemethanol","4-Piperidinemethanol"]},"Version":{"tml_elements":["nVersionMajor","nVersionMinor"],"nVersionMinor":0,"nVersionMajor":2},"THERMOML_MD5_CHECKSUM":"b0925412a0e35c9815025ea4f171dd1b","Compound":[{"sFormulaMolec":"CO2","sStandardInChIKey":"CURLTUGMZLYLDI-UHFFFAOYSA-N","tml_elements":["RegNum","sStandardInChI","sStandardInChIKey","sCommonName","sFormulaMolec"],"sCommonName":["carbon dioxide"],"RegNum":{"tml_elements":["nOrgNum"],"nOrgNum":1},"sStandardInChI":"InChI=1S/CO2/c2-1-3"},{"sStandardInChI":"InChI=1S/N2/c1-2","RegNum":{"nOrgNum":2,"tml_elements":["nOrgNum"]},"sStandardInChIKey":"IJGRMHOSHXDMSA-UHFFFAOYSA-N","sFormulaMolec":"N2","sCommonName":["nitrogen"],"tml_elements":["RegNum","sStandardInChI","sStandardInChIKey","sCommonName","sFormulaMolec"]},{"sFormulaMolec":"H2O","sCommonName":["water"],"tml_elements":["RegNum","sStandardInChI","sStandardInChIKey","sCommonName","sFormulaMolec"],"sStandardInChIKey":"XLYOFNOQVPJJNP-UHFFFAOYSA-N","RegNum":{"nOrgNum":3,"tml_elements":["nOrgNum"]},"sStandardInChI":"InChI=1S/H2O/h1H2"},{"sFormulaMolec":"O2","sStandardInChIKey":"MYMOFIZGZYHOMD-UHFFFAOYSA-N","sCommonName":["oxygen"],"tml_elements":["RegNum","sStandardInChI","sStandardInChIKey","sCommonName","sFormulaMolec"],"RegNum":{"tml_elements":["nOrgNum"],"nOrgNum":4},"sStandardInChI":"InChI=1S/O2/c1-2"},{"tml_elements":["RegNum","sStandardInChI","sStandardInChIKey","sCommonName","sFormulaMolec","Sample"],"sCommonName":["2-(hydroxymethyl)piperidine","2-piperidinemethanol"],"Sample":[{"nSampleNm":1,"eSource":"Commercial source","purity":[{"ePurifMethod":["Sublimation"],"nStep":1,"tml_elements":["nStep","ePurifMethod"]},{"nStep":2,"nPurityMolDigits":5,"nPurityMol":99.989,"tml_elements":["nStep","nPurityMol","nPurityMolDigits","eAnalMeth"],"eAnalMeth":["CO2 yield in combustion products"]}],"tml_elements":["nSampleNm","eSource","purity"]}],"sFormulaMolec":"C6H13NO","sStandardInChI":"InChI=1S/C6H13NO/c8-5-6-3-1-2-4-7-6/h6-8H,1-5H2","RegNum":{"nOrgNum":5,"tml_elements":["nOrgNum"]},"sStandardInChIKey":"PRAYXGYYVXRDDW-UHFFFAOYSA-N"},{"sStandardInChIKey":"VUNPWIPIOOMCPT-UHFFFAOYSA-N","RegNum":{"nOrgNum":6,"tml_elements":["nOrgNum"]},"sStandardInChI":"InChI=1S/C6H13NO/c8-5-6-2-1-3-7-4-6/h6-8H,1-5H2","sFormulaMolec":"C6H13NO","Sample":[{"purity":[{"ePurifMethod":["Sublimation"],"nStep":1,"tml_elements":["nStep","ePurifMethod"]},{"tml_elements":["nStep","nPurityMol","nPurityMolDigits","eAnalMeth"],"nPurityMol":99.956,"nPurityMolDigits":5,"nStep":2,"eAnalMeth":["CO2 yield in combustion products"]}],"tml_elements":["nSampleNm","eSource","purity"],"eSource":"Commercial source","nSampleNm":1}],"tml_elements":["RegNum","sStandardInChI","sStandardInChIKey","sCommonName","sFormulaMolec","Sample"],"sCommonName":["3-(hydroxymethyl)piperidine","3-piperidinemethanol"]},{"sStandardInChI":"InChI=1S/C6H13NO/c8-5-6-1-3-7-4-2-6/h6-8H,1-5H2","RegNum":{"tml_elements":["nOrgNum"],"nOrgNum":7},"sStandardInChIKey":"XBXHCBLBYQEYTI-UHFFFAOYSA-N","tml_elements":["RegNum","sStandardInChI","sStandardInChIKey","sCommonName","sFormulaMolec","Sample"],"Sample":[{"tml_elements":["nSampleNm","eSource","purity"],"purity":[{"tml_elements":["nStep","ePurifMethod"],"nStep":1,"ePurifMethod":["Sublimation"]},{"eAnalMeth":["CO2 yield in combustion products"],"tml_elements":["nStep","nPurityMol","nPurityMolDigits","eAnalMeth"],"nPurityMol":99.999,"nPurityMolDigits":5,"nStep":2}],"eSource":"Commercial source","nSampleNm":1}],"sCommonName":["4-piperidinemethanol"],"sFormulaMolec":"C6H13NO"}],"tml_elements":["Version","Citation","Compound","PureOrMixtureData","ReactionData"],"PureOrMixtureData":[{"Component":[{"nSampleNm":1,"RegNum":{"nOrgNum":5,"tml_elements":["nOrgNum"]},"tml_elements":["RegNum","nSampleNm"]}],"tml_elements":["nPureOrMixtureDataNumber","Component","eExpPurpose","sCompiler","sContributor","dateDateAdded","Property","PhaseID","Variable","NumValues"],"PhaseID":[{"ePhase":"Gas","tml_elements":["ePhase"]}],"sContributor":"JCE","Variable":[{"VariableID":{"VariableType":{"eTemperature":"Temperature, K","tml_elements":["eTemperature"]},"tml_elements":["VariableType"]},"tml_elements":["nVarNumber","VariableID","VarPhaseID"],"VarPhaseID":{"eVarPhase":"Gas","tml_elements":["eVarPhase"]},"nVarNumber":1},{"VariableID":{"VariableType":{"tml_elements":["ePressure"],"ePressure":"Pressure, kPa"},"tml_elements":["VariableType"]},"tml_elements":["nVarNumber","VariableID","VarPhaseID"],"VarPhaseID":{"tml_elements":["eVarPhase"],"eVarPhase":"Gas"},"nVarNumber":2}],"Property":[{"nRefTempDigits":5,"tml_elements":["nPropNumber","Property-MethodID","PropPhaseID","ePresentation","eRefStateType","nRefTemp","nRefTempDigits","nRefPressure","nRefPressureDigits","RefPhaseID","CombinedUncertainty"],"ePresentation":"Difference with the reference state, X-X(REF)","nPropNumber":1,"PropPhaseID":{"ePropPhase":"Gas","tml_elements":["ePropPhase"]},"nRefTemp":"298.15","CombinedUncertainty":{"nCombUncertAssessNum":1,"sCombUncertEvaluator":"Data file compiler","tml_elements":["nCombUncertAssessNum","sCombUncertEvaluator","eCombUncertEvalMethod","nCombUncertLevOfConfid"],"eCombUncertEvalMethod":"Propagation of evaluated standard uncertainties","nCombUncertLevOfConfid":95},"eRefStateType":"Reference phase with the same composition at fixed temperature and pressure","nRefPressureDigits":1,"nRefPressure":"100","Property-MethodID":{"PropertyGroup":{"HeatCapacityAndDerivedProp":{"sMethodName":"Calvet microcalorimetry","ePropName":"Molar enthalpy, kJ/mol","tml_elements":["ePropName","sMethodName"]},"tml_elements":["HeatCapacityAndDerivedProp"]},"tml_elements":["PropertyGroup"]},"RefPhaseID":{"eRefPhase":"Crystal","tml_elements":["eRefPhase"]}}],"eExpPurpose":"Principal objective of the work","NumValues":[{"tml_elements":["VariableValue","PropertyValue"],"PropertyValue":[{"CombinedUncertainty":{"nCombExpandUncertValue":0.34,"tml_elements":["nCombUncertAssessNum","nCombExpandUncertValue"],"nCombUncertAssessNum":1},"nPropValue":98.98,"nPropDigits":4,"nPropNumber":1,"tml_elements":["nPropNumber","nPropValue","nPropDigits","CombinedUncertainty"]}],"VariableValue":[{"nVarValue":337,"nVarNumber":1,"nVarDigits":4,"tml_elements":["nVarNumber","nVarValue","nVarDigits"]},{"nVarValue":100,"nVarNumber":2,"nVarDigits":1,"tml_elements":["nVarNumber","nVarValue","nVarDigits"]}]}],"dateDateAdded":"11/7/2011","nPureOrMixtureDataNumber":1,"sCompiler":"JCE"},{"Variable":[{"tml_elements":["nVarNumber","VariableID","VarPhaseID"],"nVarNumber":1,"VarPhaseID":{"tml_elements":["eVarPhase"],"eVarPhase":"Gas"},"VariableID":{"VariableType":{"tml_elements":["eTemperature"],"eTemperature":"Temperature, K"},"tml_elements":["VariableType"]}},{"VarPhaseID":{"tml_elements":["eVarPhase"],"eVarPhase":"Gas"},"nVarNumber":2,"tml_elements":["nVarNumber","VariableID","VarPhaseID"],"VariableID":{"tml_elements":["VariableType"],"VariableType":{"ePressure":"Pressure, kPa","tml_elements":["ePressure"]}}}],"sContributor":"JCE","PhaseID":[{"tml_elements":["ePhase"],"ePhase":"Gas"}],"tml_elements":["nPureOrMixtureDataNumber","Component","eExpPurpose","sCompiler","sContributor","dateDateAdded","Property","PhaseID","Variable","NumValues"],"Component":[{"RegNum":{"tml_elements":["nOrgNum"],"nOrgNum":6},"nSampleNm":1,"tml_elements":["RegNum","nSampleNm"]}],"sCompiler":"JCE","dateDateAdded":"11/7/2011","nPureOrMixtureDataNumber":2,"NumValues":[{"VariableValue":[{"nVarValue":334.1,"nVarNumber":1,"tml_elements":["nVarNumber","nVarValue","nVarDigits"],"nVarDigits":4},{"nVarDigits":1,"tml_elements":["nVarNumber","nVarValue","nVarDigits"],"nVarNumber":2,"nVarValue":100}],"tml_elements":["VariableValue","PropertyValue"],"PropertyValue":[{"CombinedUncertainty":{"nCombUncertAssessNum":1,"nCombExpandUncertValue":0.75,"tml_elements":["nCombUncertAssessNum","nCombExpandUncertValue"]},"nPropValue":101.41,"tml_elements":["nPropNumber","nPropValue","nPropDigits","CombinedUncertainty"],"nPropDigits":5,"nPropNumber":1}]}],"Property":[{"nRefTemp":"298.15","RefPhaseID":{"eRefPhase":"Crystal","tml_elements":["eRefPhase"]},"Property-MethodID":{"tml_elements":["PropertyGroup"],"PropertyGroup":{"tml_elements":["HeatCapacityAndDerivedProp"],"HeatCapacityAndDerivedProp":{"tml_elements":["ePropName","sMethodName"],"sMethodName":"Calvet microcalorimetry","ePropName":"Molar enthalpy, kJ/mol"}}},"nRefPressureDigits":1,"ePresentation":"Difference with the reference state, X-X(REF)","CombinedUncertainty":{"nCombUncertLevOfConfid":95,"eCombUncertEvalMethod":"Propagation of evaluated standard uncertainties","tml_elements":["nCombUncertAssessNum","sCombUncertEvaluator","eCombUncertEvalMethod","nCombUncertLevOfConfid"],"sCombUncertEvaluator":"Data file compiler","nCombUncertAssessNum":1},"eRefStateType":"Reference phase with the same composition at fixed temperature and pressure","nRefPressure":"100","nRefTempDigits":5,"nPropNumber":1,"PropPhaseID":{"ePropPhase":"Gas","tml_elements":["ePropPhase"]},"tml_elements":["nPropNumber","Property-MethodID","PropPhaseID","ePresentation","eRefStateType","nRefTemp","nRefTempDigits","nRefPressure","nRefPressureDigits","RefPhaseID","CombinedUncertainty"]}],"eExpPurpose":"Principal objective of the work"},{"Component":[{"RegNum":{"tml_elements":["nOrgNum"],"nOrgNum":7},"nSampleNm":1,"tml_elements":["RegNum","nSampleNm"]}],"tml_elements":["nPureOrMixtureDataNumber","Component","eExpPurpose","sCompiler","sContributor","dateDateAdded","Property","PhaseID","Variable","NumValues"],"PhaseID":[{"tml_elements":["ePhase"],"ePhase":"Gas"}],"sContributor":"JCE","Variable":[{"VariableID":{"VariableType":{"tml_elements":["eTemperature"],"eTemperature":"Temperature, K"},"tml_elements":["VariableType"]},"tml_elements":["nVarNumber","VariableID","VarPhaseID"],"nVarNumber":1,"VarPhaseID":{"tml_elements":["eVarPhase"],"eVarPhase":"Gas"}},{"VariableID":{"tml_elements":["VariableType"],"VariableType":{"ePressure":"Pressure, kPa","tml_elements":["ePressure"]}},"tml_elements":["nVarNumber","VariableID","VarPhaseID"],"VarPhaseID":{"tml_elements":["eVarPhase"],"eVarPhase":"Gas"},"nVarNumber":2}],"Property":[{"ePresentation":"Difference with the reference state, X-X(REF)","nRefTemp":"298.15","Property-MethodID":{"PropertyGroup":{"tml_elements":["HeatCapacityAndDerivedProp"],"HeatCapacityAndDerivedProp":{"sMethodName":"Calvet microcalorimetry","ePropName":"Molar enthalpy, kJ/mol","tml_elements":["ePropName","sMethodName"]}},"tml_elements":["PropertyGroup"]},"RefPhaseID":{"eRefPhase":"Crystal","tml_elements":["eRefPhase"]},"nRefPressureDigits":1,"nRefTempDigits":5,"nPropNumber":1,"PropPhaseID":{"tml_elements":["ePropPhase"],"ePropPhase":"Gas"},"tml_elements":["nPropNumber","Property-MethodID","PropPhaseID","ePresentation","eRefStateType","nRefTemp","nRefTempDigits","nRefPressure","nRefPressureDigits","RefPhaseID","CombinedUncertainty"],"CombinedUncertainty":{"sCombUncertEvaluator":"Data file compiler","nCombUncertAssessNum":1,"eCombUncertEvalMethod":"Propagation of evaluated standard uncertainties","nCombUncertLevOfConfid":95,"tml_elements":["nCombUncertAssessNum","sCombUncertEvaluator","eCombUncertEvalMethod","nCombUncertLevOfConfid"]},"eRefStateType":"Reference phase with the same composition at fixed temperature and pressure","nRefPressure":"100"}],"eExpPurpose":"Principal objective of the work","NumValues":[{"VariableValue":[{"nVarValue":339.1,"nVarNumber":1,"nVarDigits":4,"tml_elements":["nVarNumber","nVarValue","nVarDigits"]},{"nVarNumber":2,"tml_elements":["nVarNumber","nVarValue","nVarDigits"],"nVarDigits":1,"nVarValue":100}],"tml_elements":["VariableValue","PropertyValue"],"PropertyValue":[{"CombinedUncertainty":{"nCombUncertAssessNum":1,"tml_elements":["nCombUncertAssessNum","nCombExpandUncertValue"],"nCombExpandUncertValue":0.34},"nPropValue":104.62,"nPropDigits":5,"nPropNumber":1,"tml_elements":["nPropNumber","nPropValue","nPropDigits","CombinedUncertainty"]}]}],"nPureOrMixtureDataNumber":3,"dateDateAdded":"11/7/2011","sCompiler":"JCE"}],"ReactionData":[{"nReactionDataNumber":1,"sContributor":"JCE","eReactionType":"Combustion with oxygen","tml_elements":["nReactionDataNumber","Participant","eExpPurpose","sCompiler","sContributor","dateDateAdded","eReactionType","Property","NumValues"],"Participant":[{"RegNum":{"tml_elements":["nOrgNum"],"nOrgNum":6},"nSampleNm":1,"nStoichiometricCoef":"-1","ePhase":"Crystal","tml_elements":["RegNum","nSampleNm","nStoichiometricCoef","ePhase"]},{"ePhase":"Ideal gas","tml_elements":["RegNum","nStoichiometricCoef","ePhase"],"RegNum":{"nOrgNum":1,"tml_elements":["nOrgNum"]},"nStoichiometricCoef":"6"},{"nStoichiometricCoef":".5","RegNum":{"nOrgNum":2,"tml_elements":["nOrgNum"]},"ePhase":"Ideal gas","tml_elements":["RegNum","nStoichiometricCoef","ePhase"]},{"tml_elements":["RegNum","nStoichiometricCoef","ePhase"],"ePhase":"Liquid","RegNum":{"nOrgNum":3,"tml_elements":["nOrgNum"]},"nStoichiometricCoef":"6.5"},{"nStoichiometricCoef":"-8.75","RegNum":{"tml_elements":["nOrgNum"],"nOrgNum":4},"ePhase":"Ideal gas","tml_elements":["RegNum","nStoichiometricCoef","ePhase"]}],"sCompiler":"JCE","dateDateAdded":"11/7/2011","NumValues":[{"PropertyValue":[{"CombinedUncertainty":{"tml_elements":["nCombUncertAssessNum","nCombExpandUncertValue"],"nCombExpandUncertValue":4.9,"nCombUncertAssessNum":1},"nPropValue":-33772.1,"tml_elements":["nPropNumber","nPropValue","nPropDigits","CombinedUncertainty"],"nPropDigits":6,"nPropNumber":1}],"tml_elements":["PropertyValue"],"VariableValue":[]}],"eExpPurpose":"Principal objective of the work","Property":[{"nPropNumber":1,"tml_elements":["nPropNumber","Property-MethodID","nTemperature-K","nTemperatureDigits","nPressure-kPa","nPressureDigits","CombinedUncertainty"],"CombinedUncertainty":{"eCombUncertEvalMethod":"Propagation of evaluated standard uncertainties","nCombUncertLevOfConfid":95,"tml_elements":["nCombUncertAssessNum","sCombUncertEvaluator","eCombUncertEvalMethod","nCombUncertLevOfConfid"],"sCombUncertEvaluator":"Data file compiler","nCombUncertAssessNum":1},"nTemperature-K":"298.15","nPressureDigits":1,"nPressure-kPa":"100","Property-MethodID":{"PropertyGroup":{"ReactionStateChangeProp":{"tml_elements":["ePropName","eMethodName"],"eMethodName":"Static bomb calorimetry","ePropName":"Specific internal energy of reaction at constant volume, J/g"},"tml_elements":["ReactionStateChangeProp"]},"tml_elements":["PropertyGroup"]},"nTemperatureDigits":5}]},{"Property":[{"nPropNumber":1,"tml_elements":["nPropNumber","Property-MethodID","nTemperature-K","nTemperatureDigits","nPressure-kPa","nPressureDigits","CombinedUncertainty"],"Property-MethodID":{"tml_elements":["PropertyGroup"],"PropertyGroup":{"tml_elements":["ReactionStateChangeProp"],"ReactionStateChangeProp":{"eMethodName":"Static bomb calorimetry","ePropName":"Specific internal energy of reaction at constant volume, J/g","tml_elements":["ePropName","eMethodName"]}}},"nTemperatureDigits":5,"nTemperature-K":"298.15","CombinedUncertainty":{"eCombUncertEvalMethod":"Propagation of evaluated standard uncertainties","nCombUncertLevOfConfid":95,"tml_elements":["nCombUncertAssessNum","sCombUncertEvaluator","eCombUncertEvalMethod","nCombUncertLevOfConfid"],"sCombUncertEvaluator":"Data file compiler","nCombUncertAssessNum":1},"nPressure-kPa":"100","nPressureDigits":1}],"eExpPurpose":"Principal objective of the work","dateDateAdded":"11/7/2011","sCompiler":"JCE","NumValues":[{"VariableValue":[],"tml_elements":["PropertyValue"],"PropertyValue":[{"CombinedUncertainty":{"nCombExpandUncertValue":4.9,"tml_elements":["nCombUncertAssessNum","nCombExpandUncertValue"],"nCombUncertAssessNum":1},"nPropValue":-33737.7,"nPropDigits":6,"nPropNumber":1,"tml_elements":["nPropNumber","nPropValue","nPropDigits","CombinedUncertainty"]}]}],"Participant":[{"RegNum":{"nOrgNum":7,"tml_elements":["nOrgNum"]},"nStoichiometricCoef":"-1","nSampleNm":1,"tml_elements":["RegNum","nSampleNm","nStoichiometricCoef","ePhase"],"ePhase":"Crystal"},{"ePhase":"Ideal gas","tml_elements":["RegNum","nStoichiometricCoef","ePhase"],"RegNum":{"tml_elements":["nOrgNum"],"nOrgNum":1},"nStoichiometricCoef":"6"},{"RegNum":{"tml_elements":["nOrgNum"],"nOrgNum":2},"nStoichiometricCoef":".5","ePhase":"Ideal gas","tml_elements":["RegNum","nStoichiometricCoef","ePhase"]},{"nStoichiometricCoef":"6.5","RegNum":{"tml_elements":["nOrgNum"],"nOrgNum":3},"ePhase":"Liquid","tml_elements":["RegNum","nStoichiometricCoef","ePhase"]},{"nStoichiometricCoef":"-8.75","RegNum":{"nOrgNum":4,"tml_elements":["nOrgNum"]},"ePhase":"Ideal gas","tml_elements":["RegNum","nStoichiometricCoef","ePhase"]}],"tml_elements":["nReactionDataNumber","Participant","eExpPurpose","sCompiler","sContributor","dateDateAdded","eReactionType","Property","NumValues"],"eReactionType":"Combustion with oxygen","nReactionDataNumber":2,"sContributor":"JCE"},{"nReactionDataNumber":3,"sContributor":"JCE","tml_elements":["nReactionDataNumber","Participant","eExpPurpose","sCompiler","sContributor","dateDateAdded","eReactionType","Property","NumValues"],"Participant":[{"RegNum":{"tml_elements":["nOrgNum"],"nOrgNum":5},"nSampleNm":1,"nStoichiometricCoef":"-1","ePhase":"Crystal","tml_elements":["RegNum","nSampleNm","nStoichiometricCoef","ePhase"]},{"RegNum":{"nOrgNum":1,"tml_elements":["nOrgNum"]},"nStoichiometricCoef":"6","ePhase":"Ideal gas","tml_elements":["RegNum","nStoichiometricCoef","ePhase"]},{"nStoichiometricCoef":".5","RegNum":{"tml_elements":["nOrgNum"],"nOrgNum":2},"ePhase":"Ideal gas","tml_elements":["RegNum","nStoichiometricCoef","ePhase"]},{"ePhase":"Liquid","tml_elements":["RegNum","nStoichiometricCoef","ePhase"],"nStoichiometricCoef":"6.5","RegNum":{"nOrgNum":3,"tml_elements":["nOrgNum"]}},{"ePhase":"Ideal gas","tml_elements":["RegNum","nStoichiometricCoef","ePhase"],"RegNum":{"nOrgNum":4,"tml_elements":["nOrgNum"]},"nStoichiometricCoef":"-8.75"}],"eReactionType":"Combustion with oxygen","dateDateAdded":"11/7/2011","sCompiler":"JCE","NumValues":[{"PropertyValue":[{"CombinedUncertainty":{"nCombUncertAssessNum":1,"nCombExpandUncertValue":6.2,"tml_elements":["nCombUncertAssessNum","nCombExpandUncertValue"]},"nPropValue":-33732.7,"nPropDigits":6,"nPropNumber":1,"tml_elements":["nPropNumber","nPropValue","nPropDigits","CombinedUncertainty"]}],"tml_elements":["PropertyValue"],"VariableValue":[]}],"Property":[{"nTemperatureDigits":5,"Property-MethodID":{"PropertyGroup":{"tml_elements":["ReactionStateChangeProp"],"ReactionStateChangeProp":{"eMethodName":"Static bomb calorimetry","ePropName":"Specific internal energy of reaction at constant volume, J/g","tml_elements":["ePropName","eMethodName"]}},"tml_elements":["PropertyGroup"]},"nPressureDigits":1,"nPressure-kPa":"100","nTemperature-K":"298.15","CombinedUncertainty":{"tml_elements":["nCombUncertAssessNum","sCombUncertEvaluator","eCombUncertEvalMethod","nCombUncertLevOfConfid"],"nCombUncertLevOfConfid":95,"eCombUncertEvalMethod":"Propagation of evaluated standard uncertainties","nCombUncertAssessNum":1,"sCombUncertEvaluator":"Data file compiler"},"tml_elements":["nPropNumber","Property-MethodID","nTemperature-K","nTemperatureDigits","nPressure-kPa","nPressureDigits","CombinedUncertainty"],"nPropNumber":1}],"eExpPurpose":"Principal objective of the work"}]}