{"tml_elements":["Version","Citation","Compound","ReactionData"],"ReactionData":[{"sCompiler":"GLD","dateDateAdded":"1/11/2012","NumValues":[{"PropertyValue":[{"nPropNumber":1,"nPropDigits":6,"tml_elements":["nPropNumber","nPropValue","nPropDigits","CombinedUncertainty"],"CombinedUncertainty":{"nCombUncertAssessNum":1,"tml_elements":["nCombUncertAssessNum","nCombExpandUncertValue"],"nCombExpandUncertValue":7.3},"nPropValue":-14557.7}],"tml_elements":["PropertyValue"],"VariableValue":[]}],"Property":[{"tml_elements":["nPropNumber","Property-MethodID","nTemperature-K","nTemperatureDigits","nPressure-kPa","nPressureDigits","CombinedUncertainty"],"nPropNumber":1,"nTemperatureDigits":5,"Property-MethodID":{"tml_elements":["PropertyGroup"],"PropertyGroup":{"tml_elements":["ReactionStateChangeProp"],"ReactionStateChangeProp":{"eMethodName":"Static bomb calorimetry","ePropName":"Specific internal energy of reaction at constant volume, J/g","tml_elements":["ePropName","eMethodName"]}}},"nPressureDigits":6,"nPressure-kPa":"101.325","nTemperature-K":"298.15","CombinedUncertainty":{"tml_elements":["nCombUncertAssessNum","sCombUncertEvaluator","eCombUncertEvalMethod","nCombUncertLevOfConfid"],"eCombUncertEvalMethod":"Propagation of evaluated standard uncertainties","nCombUncertLevOfConfid":95,"nCombUncertAssessNum":1,"sCombUncertEvaluator":"Data file compiler"}}],"eExpPurpose":"Principal objective of the work","nReactionDataNumber":1,"sContributor":"XXX","eReactionType":"Combustion with oxygen","tml_elements":["nReactionDataNumber","Participant","eExpPurpose","sCompiler","sContributor","dateDateAdded","eReactionType","Property","NumValues"],"Participant":[{"RegNum":{"nOrgNum":7,"tml_elements":["nOrgNum"]},"nStoichiometricCoef":"-1","nSampleNm":1,"tml_elements":["RegNum","nSampleNm","nStoichiometricCoef","ePhase"],"ePhase":"Crystal"},{"tml_elements":["RegNum","nStoichiometricCoef","ePhase"],"ePhase":"Ideal gas","nStoichiometricCoef":"4","RegNum":{"nOrgNum":1,"tml_elements":["nOrgNum"]}},{"tml_elements":["RegNum","nStoichiometricCoef","ePhase"],"ePhase":"Ideal gas","RegNum":{"tml_elements":["nOrgNum"],"nOrgNum":2},"nStoichiometricCoef":"1.5"},{"tml_elements":["RegNum","nStoichiometricCoef","ePhase"],"ePhase":"Liquid","nStoichiometricCoef":"2.5","RegNum":{"tml_elements":["nOrgNum"],"nOrgNum":3}},{"nStoichiometricCoef":"-4.25","RegNum":{"tml_elements":["nOrgNum"],"nOrgNum":4},"ePhase":"Ideal gas","tml_elements":["RegNum","nStoichiometricCoef","ePhase"]}]},{"Property":[{"nPropNumber":1,"tml_elements":["nPropNumber","Property-MethodID","nTemperature-K","nTemperatureDigits","nPressure-kPa","nPressureDigits","CombinedUncertainty"],"Property-MethodID":{"tml_elements":["PropertyGroup"],"PropertyGroup":{"tml_elements":["ReactionStateChangeProp"],"ReactionStateChangeProp":{"eMethodName":"Static bomb calorimetry","ePropName":"Specific internal energy of reaction at constant volume, J/g","tml_elements":["ePropName","eMethodName"]}}},"nTemperatureDigits":5,"nTemperature-K":"298.15","CombinedUncertainty":{"nCombUncertLevOfConfid":95,"eCombUncertEvalMethod":"Propagation of evaluated standard uncertainties","tml_elements":["nCombUncertAssessNum","sCombUncertEvaluator","eCombUncertEvalMethod","nCombUncertLevOfConfid"],"sCombUncertEvaluator":"Data file compiler","nCombUncertAssessNum":1},"nPressureDigits":6,"nPressure-kPa":"101.325"}],"eExpPurpose":"Principal objective of the work","dateDateAdded":"1/11/2012","sCompiler":"GLD","NumValues":[{"tml_elements":["PropertyValue"],"PropertyValue":[{"nPropValue":-20542.1,"CombinedUncertainty":{"nCombUncertAssessNum":1,"tml_elements":["nCombUncertAssessNum","nCombExpandUncertValue"],"nCombExpandUncertValue":5.7},"nPropDigits":6,"nPropNumber":1,"tml_elements":["nPropNumber","nPropValue","nPropDigits","CombinedUncertainty"]}],"VariableValue":[]}],"Participant":[{"nStoichiometricCoef":"-1","nSampleNm":1,"RegNum":{"nOrgNum":8,"tml_elements":["nOrgNum"]},"tml_elements":["RegNum","nSampleNm","nStoichiometricCoef","ePhase"],"ePhase":"Crystal"},{"ePhase":"Ideal gas","tml_elements":["RegNum","nStoichiometricCoef","ePhase"],"RegNum":{"nOrgNum":1,"tml_elements":["nOrgNum"]},"nStoichiometricCoef":"6"},{"nStoichiometricCoef":"1.5","RegNum":{"nOrgNum":2,"tml_elements":["nOrgNum"]},"tml_elements":["RegNum","nStoichiometricCoef","ePhase"],"ePhase":"Ideal gas"},{"tml_elements":["RegNum","nStoichiometricCoef","ePhase"],"ePhase":"Liquid","nStoichiometricCoef":"4.5","RegNum":{"tml_elements":["nOrgNum"],"nOrgNum":3}},{"RegNum":{"nOrgNum":4,"tml_elements":["nOrgNum"]},"nStoichiometricCoef":"-7.25","ePhase":"Ideal gas","tml_elements":["RegNum","nStoichiometricCoef","ePhase"]}],"tml_elements":["nReactionDataNumber","Participant","eExpPurpose","sCompiler","sContributor","dateDateAdded","eReactionType","Property","NumValues"],"eReactionType":"Combustion with oxygen","nReactionDataNumber":2,"sContributor":"XXX"},{"dateDateAdded":"1/11/2012","sCompiler":"GLD","NumValues":[{"PropertyValue":[{"tml_elements":["nPropNumber","nPropValue","nPropDigits","CombinedUncertainty"],"nPropNumber":1,"nPropDigits":6,"nPropValue":-14267.2,"CombinedUncertainty":{"nCombUncertAssessNum":1,"tml_elements":["nCombUncertAssessNum","nCombExpandUncertValue"],"nCombExpandUncertValue":8.7}}],"tml_elements":["PropertyValue"],"VariableValue":[]}],"eExpPurpose":"Principal objective of the work","Property":[{"Property-MethodID":{"tml_elements":["PropertyGroup"],"PropertyGroup":{"tml_elements":["ReactionStateChangeProp"],"ReactionStateChangeProp":{"ePropName":"Specific internal energy of reaction at constant volume, J/g","eMethodName":"Static bomb calorimetry","tml_elements":["ePropName","eMethodName"]}}},"nTemperatureDigits":5,"nTemperature-K":"298.15","CombinedUncertainty":{"sCombUncertEvaluator":"Data file compiler","nCombUncertAssessNum":1,"eCombUncertEvalMethod":"Propagation of evaluated standard uncertainties","nCombUncertLevOfConfid":95,"tml_elements":["nCombUncertAssessNum","sCombUncertEvaluator","eCombUncertEvalMethod","nCombUncertLevOfConfid"]},"nPressureDigits":6,"nPressure-kPa":"101.325","nPropNumber":1,"tml_elements":["nPropNumber","Property-MethodID","nTemperature-K","nTemperatureDigits","nPressure-kPa","nPressureDigits","CombinedUncertainty"]}],"nReactionDataNumber":3,"sContributor":"XXX","Participant":[{"RegNum":{"tml_elements":["nOrgNum"],"nOrgNum":9},"nStoichiometricCoef":"-1","nSampleNm":1,"tml_elements":["RegNum","nSampleNm","nStoichiometricCoef","ePhase"],"ePhase":"Crystal"},{"RegNum":{"nOrgNum":1,"tml_elements":["nOrgNum"]},"nStoichiometricCoef":"4","tml_elements":["RegNum","nStoichiometricCoef","ePhase"],"ePhase":"Ideal gas"},{"RegNum":{"tml_elements":["nOrgNum"],"nOrgNum":2},"nStoichiometricCoef":"1.5","ePhase":"Ideal gas","tml_elements":["RegNum","nStoichiometricCoef","ePhase"]},{"nStoichiometricCoef":"2.5","RegNum":{"nOrgNum":3,"tml_elements":["nOrgNum"]},"ePhase":"Liquid","tml_elements":["RegNum","nStoichiometricCoef","ePhase"]},{"ePhase":"Ideal gas","tml_elements":["RegNum","nStoichiometricCoef","ePhase"],"RegNum":{"tml_elements":["nOrgNum"],"nOrgNum":4},"nStoichiometricCoef":"-4.25"}],"tml_elements":["nReactionDataNumber","Participant","eExpPurpose","sCompiler","sContributor","dateDateAdded","eReactionType","Property","NumValues"],"eReactionType":"Combustion with oxygen"},{"eExpPurpose":"Principal objective of the work","Property":[{"nTemperatureDigits":5,"Property-MethodID":{"PropertyGroup":{"ReactionStateChangeProp":{"tml_elements":["ePropName","eMethodName"],"eMethodName":"Static bomb calorimetry","ePropName":"Specific internal energy of reaction at constant volume, J/g"},"tml_elements":["ReactionStateChangeProp"]},"tml_elements":["PropertyGroup"]},"nPressure-kPa":"101.325","nPressureDigits":6,"nTemperature-K":"298.15","CombinedUncertainty":{"tml_elements":["nCombUncertAssessNum","sCombUncertEvaluator","eCombUncertEvalMethod","nCombUncertLevOfConfid"],"eCombUncertEvalMethod":"Propagation of evaluated standard uncertainties","nCombUncertLevOfConfid":95,"nCombUncertAssessNum":1,"sCombUncertEvaluator":"Data file compiler"},"tml_elements":["nPropNumber","Property-MethodID","nTemperature-K","nTemperatureDigits","nPressure-kPa","nPressureDigits","CombinedUncertainty"],"nPropNumber":1}],"sCompiler":"GLD","dateDateAdded":"1/11/2012","NumValues":[{"PropertyValue":[{"nPropValue":-17699.4,"CombinedUncertainty":{"nCombUncertAssessNum":1,"tml_elements":["nCombUncertAssessNum","nCombExpandUncertValue"],"nCombExpandUncertValue":10.1},"nPropDigits":6,"nPropNumber":1,"tml_elements":["nPropNumber","nPropValue","nPropDigits","CombinedUncertainty"]}],"tml_elements":["PropertyValue"],"VariableValue":[]}],"eReactionType":"Combustion with oxygen","tml_elements":["nReactionDataNumber","Participant","eExpPurpose","sCompiler","sContributor","dateDateAdded","eReactionType","Property","NumValues"],"Participant":[{"RegNum":{"nOrgNum":10,"tml_elements":["nOrgNum"]},"nStoichiometricCoef":"-1","nSampleNm":1,"tml_elements":["RegNum","nSampleNm","nStoichiometricCoef","ePhase"],"ePhase":"Crystal"},{"nStoichiometricCoef":"5","RegNum":{"tml_elements":["nOrgNum"],"nOrgNum":1},"tml_elements":["RegNum","nStoichiometricCoef","ePhase"],"ePhase":"Ideal gas"},{"tml_elements":["RegNum","nStoichiometricCoef","ePhase"],"ePhase":"Ideal gas","nStoichiometricCoef":"1.5","RegNum":{"tml_elements":["nOrgNum"],"nOrgNum":2}},{"RegNum":{"nOrgNum":3,"tml_elements":["nOrgNum"]},"nStoichiometricCoef":"3.5","tml_elements":["RegNum","nStoichiometricCoef","ePhase"],"ePhase":"Liquid"},{"nStoichiometricCoef":"-5.75","RegNum":{"nOrgNum":4,"tml_elements":["nOrgNum"]},"tml_elements":["RegNum","nStoichiometricCoef","ePhase"],"ePhase":"Ideal gas"}],"nReactionDataNumber":4,"sContributor":"XXX"},{"Property":[{"nPropNumber":1,"tml_elements":["nPropNumber","Property-MethodID","nTemperature-K","nTemperatureDigits","nPressure-kPa","nPressureDigits","CombinedUncertainty"],"CombinedUncertainty":{"tml_elements":["nCombUncertAssessNum","sCombUncertEvaluator","eCombUncertEvalMethod","nCombUncertLevOfConfid"],"nCombUncertLevOfConfid":95,"eCombUncertEvalMethod":"Propagation of evaluated standard uncertainties","nCombUncertAssessNum":1,"sCombUncertEvaluator":"Data file compiler"},"nTemperature-K":"298.15","nPressureDigits":6,"nPressure-kPa":"101.325","Property-MethodID":{"tml_elements":["PropertyGroup"],"PropertyGroup":{"ReactionStateChangeProp":{"eMethodName":"Static bomb calorimetry","ePropName":"Molar enthalpy of reaction, kJ/mol","tml_elements":["ePropName","eMethodName"]},"tml_elements":["ReactionStateChangeProp"]}},"nTemperatureDigits":5}],"eExpPurpose":"Principal objective of the work","sCompiler":"JWM","dateDateAdded":"1/11/2012","NumValues":[{"VariableValue":[],"tml_elements":["PropertyValue"],"PropertyValue":[{"tml_elements":["nPropNumber","nPropValue","nPropDigits","CombinedUncertainty"],"nPropDigits":4,"nPropNumber":1,"nPropValue":-441.4,"CombinedUncertainty":{"nCombUncertAssessNum":1,"tml_elements":["nCombUncertAssessNum","nCombExpandUncertValue"],"nCombExpandUncertValue":2.2}}]}],"eReactionType":"Formation of a compound from elements in their stable state","tml_elements":["nReactionDataNumber","Participant","eExpPurpose","sCompiler","sContributor","dateDateAdded","eReactionType","Property","NumValues"],"Participant":[{"RegNum":{"nOrgNum":7,"tml_elements":["nOrgNum"]},"nSampleNm":1,"nStoichiometricCoef":"1","ePhase":"Crystal","tml_elements":["RegNum","nSampleNm","nStoichiometricCoef","ePhase"]},{"nStoichiometricCoef":"-2.5","RegNum":{"nOrgNum":5,"tml_elements":["nOrgNum"]},"tml_elements":["RegNum","nStoichiometricCoef","ePhase"],"ePhase":"Ideal gas"},{"RegNum":{"nOrgNum":2,"tml_elements":["nOrgNum"]},"nStoichiometricCoef":"-1.5","tml_elements":["RegNum","nStoichiometricCoef","ePhase"],"ePhase":"Ideal gas"},{"RegNum":{"nOrgNum":6,"tml_elements":["nOrgNum"]},"nStoichiometricCoef":"-4","ePhase":"Crystal","tml_elements":["RegNum","nStoichiometricCoef","ePhase"]},{"ePhase":"Ideal gas","tml_elements":["RegNum","nStoichiometricCoef","ePhase"],"RegNum":{"tml_elements":["nOrgNum"],"nOrgNum":4},"nStoichiometricCoef":"-1"}],"nReactionDataNumber":5,"sContributor":"TRC"},{"eReactionType":"Formation of a compound from elements in their stable state","Participant":[{"tml_elements":["RegNum","nSampleNm","nStoichiometricCoef","ePhase"],"ePhase":"Crystal","nStoichiometricCoef":"1","nSampleNm":1,"RegNum":{"nOrgNum":8,"tml_elements":["nOrgNum"]}},{"nStoichiometricCoef":"-4.5","RegNum":{"nOrgNum":5,"tml_elements":["nOrgNum"]},"tml_elements":["RegNum","nStoichiometricCoef","ePhase"],"ePhase":"Ideal gas"},{"ePhase":"Ideal gas","tml_elements":["RegNum","nStoichiometricCoef","ePhase"],"nStoichiometricCoef":"-1.5","RegNum":{"nOrgNum":2,"tml_elements":["nOrgNum"]}},{"nStoichiometricCoef":"-6","RegNum":{"tml_elements":["nOrgNum"],"nOrgNum":6},"ePhase":"Crystal","tml_elements":["RegNum","nStoichiometricCoef","ePhase"]},{"RegNum":{"tml_elements":["nOrgNum"],"nOrgNum":4},"nStoichiometricCoef":"-1","tml_elements":["RegNum","nStoichiometricCoef","ePhase"],"ePhase":"Ideal gas"}],"tml_elements":["nReactionDataNumber","Participant","eExpPurpose","sCompiler","sContributor","dateDateAdded","eReactionType","Property","NumValues"],"sContributor":"TRC","nReactionDataNumber":6,"eExpPurpose":"Principal objective of the work","Property":[{"nPropNumber":1,"Property-MethodID":{"tml_elements":["PropertyGroup"],"PropertyGroup":{"ReactionStateChangeProp":{"eMethodName":"Static bomb calorimetry","ePropName":"Molar enthalpy of reaction, kJ/mol","tml_elements":["ePropName","eMethodName"]},"tml_elements":["ReactionStateChangeProp"]}},"tml_elements":["nPropNumber","Property-MethodID","nTemperature-K","nTemperatureDigits","nPressure-kPa","nPressureDigits","CombinedUncertainty"],"nTemperatureDigits":5,"CombinedUncertainty":{"sCombUncertEvaluator":"Data file compiler","nCombUncertAssessNum":1,"nCombUncertLevOfConfid":95,"eCombUncertEvalMethod":"Propagation of evaluated standard uncertainties","tml_elements":["nCombUncertAssessNum","sCombUncertEvaluator","eCombUncertEvalMethod","nCombUncertLevOfConfid"]},"nTemperature-K":"298.15","nPressureDigits":6,"nPressure-kPa":"101.325"}],"NumValues":[{"VariableValue":[],"PropertyValue":[{"CombinedUncertainty":{"nCombExpandUncertValue":2.6,"tml_elements":["nCombUncertAssessNum","nCombExpandUncertValue"],"nCombUncertAssessNum":1},"nPropValue":-460.7,"tml_elements":["nPropNumber","nPropValue","nPropDigits","CombinedUncertainty"],"nPropDigits":4,"nPropNumber":1}],"tml_elements":["PropertyValue"]}],"sCompiler":"JWM","dateDateAdded":"1/11/2012"},{"Property":[{"CombinedUncertainty":{"sCombUncertEvaluator":"Data file compiler","nCombUncertAssessNum":1,"eCombUncertEvalMethod":"Propagation of evaluated standard uncertainties","nCombUncertLevOfConfid":95,"tml_elements":["nCombUncertAssessNum","sCombUncertEvaluator","eCombUncertEvalMethod","nCombUncertLevOfConfid"]},"nTemperature-K":"298.15","nPressureDigits":6,"nPressure-kPa":"101.325","nPropNumber":1,"Property-MethodID":{"PropertyGroup":{"tml_elements":["ReactionStateChangeProp"],"ReactionStateChangeProp":{"tml_elements":["ePropName","eMethodName"],"eMethodName":"Static bomb calorimetry","ePropName":"Molar enthalpy of reaction, kJ/mol"}},"tml_elements":["PropertyGroup"]},"tml_elements":["nPropNumber","Property-MethodID","nTemperature-K","nTemperatureDigits","nPressure-kPa","nPressureDigits","CombinedUncertainty"],"nTemperatureDigits":5}],"eExpPurpose":"Principal objective of the work","NumValues":[{"PropertyValue":[{"nPropDigits":4,"nPropNumber":1,"tml_elements":["nPropNumber","nPropValue","nPropDigits","CombinedUncertainty"],"nPropValue":-478.3,"CombinedUncertainty":{"nCombUncertAssessNum":1,"tml_elements":["nCombUncertAssessNum","nCombExpandUncertValue"],"nCombExpandUncertValue":2.4}}],"tml_elements":["PropertyValue"],"VariableValue":[]}],"dateDateAdded":"1/11/2012","sCompiler":"JWM","tml_elements":["nReactionDataNumber","Participant","eExpPurpose","sCompiler","sContributor","dateDateAdded","eReactionType","Property","NumValues"],"Participant":[{"nSampleNm":1,"nStoichiometricCoef":"1","RegNum":{"nOrgNum":9,"tml_elements":["nOrgNum"]},"ePhase":"Crystal","tml_elements":["RegNum","nSampleNm","nStoichiometricCoef","ePhase"]},{"nStoichiometricCoef":"-2.5","RegNum":{"nOrgNum":5,"tml_elements":["nOrgNum"]},"ePhase":"Ideal gas","tml_elements":["RegNum","nStoichiometricCoef","ePhase"]},{"nStoichiometricCoef":"-1.5","RegNum":{"nOrgNum":2,"tml_elements":["nOrgNum"]},"ePhase":"Ideal gas","tml_elements":["RegNum","nStoichiometricCoef","ePhase"]},{"nStoichiometricCoef":"-4","RegNum":{"nOrgNum":6,"tml_elements":["nOrgNum"]},"ePhase":"Crystal","tml_elements":["RegNum","nStoichiometricCoef","ePhase"]},{"nStoichiometricCoef":"-1","RegNum":{"nOrgNum":4,"tml_elements":["nOrgNum"]},"ePhase":"Ideal gas","tml_elements":["RegNum","nStoichiometricCoef","ePhase"]}],"eReactionType":"Formation of a compound from elements in their stable state","sContributor":"TRC","nReactionDataNumber":7},{"nReactionDataNumber":8,"sContributor":"TRC","eReactionType":"Formation of a compound from elements in their stable state","Participant":[{"RegNum":{"tml_elements":["nOrgNum"],"nOrgNum":10},"nStoichiometricCoef":"1","nSampleNm":1,"tml_elements":["RegNum","nSampleNm","nStoichiometricCoef","ePhase"],"ePhase":"Crystal"},{"RegNum":{"nOrgNum":5,"tml_elements":["nOrgNum"]},"nStoichiometricCoef":"-3.5","tml_elements":["RegNum","nStoichiometricCoef","ePhase"],"ePhase":"Ideal gas"},{"tml_elements":["RegNum","nStoichiometricCoef","ePhase"],"ePhase":"Ideal gas","nStoichiometricCoef":"-1.5","RegNum":{"tml_elements":["nOrgNum"],"nOrgNum":2}},{"RegNum":{"tml_elements":["nOrgNum"],"nOrgNum":6},"nStoichiometricCoef":"-5","ePhase":"Crystal","tml_elements":["RegNum","nStoichiometricCoef","ePhase"]},{"tml_elements":["RegNum","nStoichiometricCoef","ePhase"],"ePhase":"Ideal gas","RegNum":{"tml_elements":["nOrgNum"],"nOrgNum":4},"nStoichiometricCoef":"-1"}],"tml_elements":["nReactionDataNumber","Participant","eExpPurpose","sCompiler","sContributor","dateDateAdded","eReactionType","Property","NumValues"],"sCompiler":"JWM","dateDateAdded":"1/11/2012","NumValues":[{"VariableValue":[],"tml_elements":["PropertyValue"],"PropertyValue":[{"CombinedUncertainty":{"nCombExpandUncertValue":3.2,"tml_elements":["nCombUncertAssessNum","nCombExpandUncertValue"],"nCombUncertAssessNum":1},"nPropValue":-471.9,"nPropNumber":1,"nPropDigits":4,"tml_elements":["nPropNumber","nPropValue","nPropDigits","CombinedUncertainty"]}]}],"Property":[{"nPressureDigits":6,"nPressure-kPa":"101.325","nTemperature-K":"298.15","CombinedUncertainty":{"nCombUncertAssessNum":1,"sCombUncertEvaluator":"Data file compiler","tml_elements":["nCombUncertAssessNum","sCombUncertEvaluator","eCombUncertEvalMethod","nCombUncertLevOfConfid"],"nCombUncertLevOfConfid":95,"eCombUncertEvalMethod":"Propagation of evaluated standard uncertainties"},"tml_elements":["nPropNumber","Property-MethodID","nTemperature-K","nTemperatureDigits","nPressure-kPa","nPressureDigits","CombinedUncertainty"],"nTemperatureDigits":5,"nPropNumber":1,"Property-MethodID":{"PropertyGroup":{"ReactionStateChangeProp":{"eMethodName":"Static bomb calorimetry","ePropName":"Molar enthalpy of reaction, kJ/mol","tml_elements":["ePropName","eMethodName"]},"tml_elements":["ReactionStateChangeProp"]},"tml_elements":["PropertyGroup"]}}],"eExpPurpose":"Principal objective of the work"}],"THERMOML_MD5_CHECKSUM":"82fad36d231c52056d2e165c69f28cf4","Citation":{"yrPubYr":"2011","sPubName":"J. Chem. Thermodyn.","dateCit":"2020-09-29","sIDNum":"11","eType":"journal","sVol":"43","sPage":"1763-1767","eSourceType":"Original","tml_elements":["TRCRefID","eType","eSourceType","sAuthor","sPubName","yrPubYr","dateCit","sTitle","sAbstract","sKeyword","sDOI","sIDNum","sVol","sPage"],"sAuthor":["Ribeiro da Silva, M. A. V.[Manuel A. V.]","Amaral, L. M. P. F.[Luisa M. P. F.]","Szterner, P.[Piotr]"],"sKeyword":["Energy of combustion","Enthalpy of formation","5-aminouracil","6-aminouracil","6-amino-1-methyluracil","6-amino-1,3-dimethyluracil"],"TRCRefID":{"nAuthorn":"2","tml_elements":["yrYrPub","sAuthor1","sAuthor2","nAuthorn"],"sAuthor2":"ama","sAuthor1":"rib","yrYrPub":"2011"},"sAbstract":"Values of the standard (p  = 0.1 MPa) molar enthalpy of combustion of four crystalline compounds: 5-aminouracil, 6-aminouracil, 6-amino-1-methyluracil, and 6-amino-1,3-dimethyluracil, were determined, at T = 298.15 K, using a static bomb combustion calorimeter. The values obtained of standard molar enthalpy of combustion were used to derive the standard molar enthalpy of formation of the compounds investigated in their condensed phase and together with literature values of the standard molar enthalpy of sublimation, yielded the standard molar enthalpies of formation in the gaseous phase. These are discussed in terms of the effects of the molecular structure on the relative enthalpic stability.","sDOI":"10.1016/j.jct.2011.06.003","sTitle":"Experimental study on the thermochemistry of some amino derivatives of uracil"},"Compound":[{"sStandardInChI":"InChI=1S/CO2/c2-1-3","RegNum":{"tml_elements":["nOrgNum"],"nOrgNum":1},"sStandardInChIKey":"CURLTUGMZLYLDI-UHFFFAOYSA-N","sFormulaMolec":"CO2","sCommonName":["carbon dioxide"],"tml_elements":["RegNum","sStandardInChI","sStandardInChIKey","sCommonName","sFormulaMolec"]},{"sFormulaMolec":"N2","sCommonName":["nitrogen"],"tml_elements":["RegNum","sStandardInChI","sStandardInChIKey","sCommonName","sFormulaMolec"],"sStandardInChIKey":"IJGRMHOSHXDMSA-UHFFFAOYSA-N","sStandardInChI":"InChI=1S/N2/c1-2","RegNum":{"nOrgNum":2,"tml_elements":["nOrgNum"]}},{"sStandardInChI":"InChI=1S/H2O/h1H2","RegNum":{"nOrgNum":3,"tml_elements":["nOrgNum"]},"sCommonName":["water"],"tml_elements":["RegNum","sStandardInChI","sStandardInChIKey","sCommonName","sFormulaMolec"],"sStandardInChIKey":"XLYOFNOQVPJJNP-UHFFFAOYSA-N","sFormulaMolec":"H2O"},{"sFormulaMolec":"O2","sStandardInChIKey":"MYMOFIZGZYHOMD-UHFFFAOYSA-N","tml_elements":["RegNum","sStandardInChI","sStandardInChIKey","sCommonName","sFormulaMolec"],"sCommonName":["oxygen"],"sStandardInChI":"InChI=1S/O2/c1-2","RegNum":{"nOrgNum":4,"tml_elements":["nOrgNum"]}},{"sFormulaMolec":"H2","sStandardInChIKey":"UFHFLCQGNIYNRP-UHFFFAOYSA-N","tml_elements":["RegNum","sStandardInChI","sStandardInChIKey","sCommonName","sFormulaMolec"],"sCommonName":["hydrogen","hydrogen (normal)"],"sStandardInChI":"InChI=1S/H2/h1H","RegNum":{"nOrgNum":5,"tml_elements":["nOrgNum"]}},{"sFormulaMolec":"C","tml_elements":["RegNum","sCommonName","sFormulaMolec"],"sCommonName":["graphite"],"RegNum":{"nOrgNum":6,"tml_elements":["nOrgNum"]}},{"Sample":[{"tml_elements":["nSampleNm","eSource","purity"],"purity":[{"tml_elements":["nStep","nPurityMass","nPurityMassDigits","eAnalMeth"],"nPurityMassDigits":2,"nStep":1,"nPurityMass":98,"eAnalMeth":["Stated by supplier"]},{"ePurifMethod":["Dried by vacuum heating","Sublimation"],"nStep":2,"tml_elements":["nStep","ePurifMethod","ePurifMethod"]},{"tml_elements":["nStep","nPurityMass","nPurityMassDigits","eAnalMeth"],"nPurityMassDigits":4,"nStep":3,"eAnalMeth":["CO2 yield in combustion products"],"nPurityMass":99.94}],"eSource":"Commercial source","nSampleNm":1}],"sCommonName":["2,4(1H,3H)-pyrimidinedione, 5-amino-","5-amino-2,4(1H,3H)-pyrimidinedione","5-aminouracil"],"tml_elements":["RegNum","sStandardInChI","sStandardInChIKey","sCommonName","sFormulaMolec","Sample"],"sFormulaMolec":"C4H5N3O2","RegNum":{"nOrgNum":7,"tml_elements":["nOrgNum"]},"sStandardInChI":"InChI=1S/C4H5N3O2/c5-2-1-6-4(9)7-3(2)8/h1H,5H2,(H2,6,7,8,9)","sStandardInChIKey":"BISHACNKZIBDFM-UHFFFAOYSA-N"},{"sCommonName":["6-amino-1,3-dimethyluracil"],"Sample":[{"purity":[{"nPurityMass":98,"eAnalMeth":["Stated by supplier"],"nPurityMassDigits":2,"tml_elements":["nStep","nPurityMass","nPurityMassDigits","eAnalMeth"],"nStep":1},{"tml_elements":["nStep","ePurifMethod","ePurifMethod"],"nStep":2,"ePurifMethod":["Crystallization from solution","Dried by vacuum heating"]},{"nPurityMassDigits":4,"tml_elements":["nStep","nPurityMass","nPurityMassDigits","eAnalMeth"],"nStep":3,"nPurityMass":99.98,"eAnalMeth":["CO2 yield in combustion products"]}],"tml_elements":["nSampleNm","eSource","purity"],"eSource":"Commercial source","nSampleNm":1}],"tml_elements":["RegNum","sStandardInChI","sStandardInChIKey","sCommonName","sFormulaMolec","Sample"],"sFormulaMolec":"C6H9N3O2","sStandardInChIKey":"VFGRNTYELNYSKJ-UHFFFAOYSA-N","sStandardInChI":"InChI=1S/C6H9N3O2/c1-8-4(7)3-5(10)9(2)6(8)11/h3H,7H2,1-2H3","RegNum":{"tml_elements":["nOrgNum"],"nOrgNum":8}},{"sStandardInChIKey":"LNDZXOWGUAIUBG-UHFFFAOYSA-N","RegNum":{"tml_elements":["nOrgNum"],"nOrgNum":9},"sStandardInChI":"InChI=1S/C4H5N3O2/c5-2-1-3(8)7-4(9)6-2/h1H,(H4,5,6,7,8,9)","sFormulaMolec":"C4H5N3O2","sCommonName":["6-aminouracil"],"tml_elements":["RegNum","sStandardInChI","sStandardInChIKey","sCommonName","sFormulaMolec","Sample"],"Sample":[{"eSource":"Commercial source","nSampleNm":1,"tml_elements":["nSampleNm","eSource","purity"],"purity":[{"nStep":1,"tml_elements":["nStep","nPurityMass","nPurityMassDigits","eAnalMeth"],"nPurityMassDigits":2,"eAnalMeth":["Stated by supplier"],"nPurityMass":98},{"nStep":2,"tml_elements":["nStep","ePurifMethod","ePurifMethod"],"ePurifMethod":["Crystallization from solution","Dried by vacuum heating"]},{"nStep":3,"tml_elements":["nStep","nPurityMass","nPurityMassDigits","eAnalMeth"],"nPurityMassDigits":4,"eAnalMeth":["CO2 yield in combustion products"],"nPurityMass":99.97}]}]},{"sStandardInChIKey":"GZLZRPNUDBIQBM-UHFFFAOYSA-N","RegNum":{"tml_elements":["nOrgNum"],"nOrgNum":10},"sStandardInChI":"InChI=1S/C5H7N3O2/c1-8-3(6)2-4(9)7-5(8)10/h2H,6H2,1H3,(H,7,9,10)","sFormulaMolec":"C5H7N3O2","Sample":[{"eSource":"Commercial source","nSampleNm":1,"purity":[{"nPurityMass":97,"eAnalMeth":["Stated by supplier"],"nStep":1,"tml_elements":["nStep","nPurityMass","nPurityMassDigits","eAnalMeth"],"nPurityMassDigits":2},{"ePurifMethod":["Crystallization from solution","Dried by vacuum heating"],"nStep":2,"tml_elements":["nStep","ePurifMethod","ePurifMethod"]},{"eAnalMeth":["CO2 yield in combustion products"],"nPurityMass":99.99,"nPurityMassDigits":4,"tml_elements":["nStep","nPurityMass","nPurityMassDigits","eAnalMeth"],"nStep":3}],"tml_elements":["nSampleNm","eSource","purity"]}],"sCommonName":["6-amino-1-methyluracil"],"tml_elements":["RegNum","sStandardInChI","sStandardInChIKey","sCommonName","sFormulaMolec","Sample"]}],"Version":{"nVersionMinor":0,"nVersionMajor":2,"tml_elements":["nVersionMajor","nVersionMinor"]}}