{"tml_elements":["Version","Citation","Compound","PureOrMixtureData"],"PureOrMixtureData":[{"Property":[{"Property-MethodID":{"PropertyGroup":{"PhaseTransition":{"tml_elements":["ePropName","sMethodName"],"ePropName":"Triple point temperature, K","sMethodName":"Not specified calorimeter"},"tml_elements":["PhaseTransition"]},"tml_elements":["PropertyGroup"]},"CombinedUncertainty":{"nCombUncertAssessNum":1,"sCombUncertEvaluator":"Data file compiler","tml_elements":["nCombUncertAssessNum","sCombUncertEvaluator","eCombUncertEvalMethod","nCombUncertLevOfConfid"],"eCombUncertEvalMethod":"Propagation of evaluated standard uncertainties","nCombUncertLevOfConfid":95},"tml_elements":["nPropNumber","Property-MethodID","PropPhaseID","ePresentation","CombinedUncertainty"],"ePresentation":"Direct value, X","nPropNumber":1,"PropPhaseID":{"tml_elements":["ePropPhase"],"ePropPhase":"Liquid"}}],"eExpPurpose":"Principal objective of the work","NumValues":[{"PropertyValue":[{"tml_elements":["nPropNumber","nPropValue","nPropDigits","CombinedUncertainty"],"nPropDigits":8,"nPropNumber":1,"nPropValue":24.551685,"CombinedUncertainty":{"nCombExpandUncertValue":0.0001,"tml_elements":["nCombUncertAssessNum","nCombExpandUncertValue"],"nCombUncertAssessNum":1}}],"tml_elements":["VariableValue","PropertyValue"],"VariableValue":[{"nVarValue":0.062,"nVarNumber":1,"nVarDigits":2,"tml_elements":["nVarNumber","nVarValue","nVarDigits"]}]},{"PropertyValue":[{"nPropNumber":1,"nPropDigits":8,"tml_elements":["nPropNumber","nPropValue","nPropDigits","CombinedUncertainty"],"CombinedUncertainty":{"nCombUncertAssessNum":1,"nCombExpandUncertValue":0.0001,"tml_elements":["nCombUncertAssessNum","nCombExpandUncertValue"]},"nPropValue":24.556042}],"tml_elements":["VariableValue","PropertyValue"],"VariableValue":[{"nVarNumber":1,"nVarDigits":2,"tml_elements":["nVarNumber","nVarValue","nVarDigits"],"nVarValue":0.092}]},{"VariableValue":[{"nVarValue":0.166,"nVarDigits":3,"tml_elements":["nVarNumber","nVarValue","nVarDigits"],"nVarNumber":1}],"PropertyValue":[{"nPropDigits":8,"nPropNumber":1,"tml_elements":["nPropNumber","nPropValue","nPropDigits","CombinedUncertainty"],"CombinedUncertainty":{"tml_elements":["nCombUncertAssessNum","nCombExpandUncertValue"],"nCombExpandUncertValue":0.0001,"nCombUncertAssessNum":1},"nPropValue":24.566973}],"tml_elements":["VariableValue","PropertyValue"]}],"sCompiler":"AB","nPureOrMixtureDataNumber":1,"dateDateAdded":"9/20/2013","Component":[{"RegNum":{"nOrgNum":2,"tml_elements":["nOrgNum"]},"nSampleNm":1,"tml_elements":["RegNum","nSampleNm"]},{"tml_elements":["RegNum","nSampleNm"],"RegNum":{"nOrgNum":1,"tml_elements":["nOrgNum"]},"nSampleNm":1}],"Variable":[{"nVarNumber":1,"VarPhaseID":{"eVarPhase":"Liquid","tml_elements":["eVarPhase"]},"tml_elements":["nVarNumber","VariableID","VarPhaseID"],"VariableID":{"tml_elements":["VariableType","RegNum"],"VariableType":{"tml_elements":["eComponentComposition"],"eComponentComposition":"Mole fraction"},"RegNum":{"nOrgNum":2,"tml_elements":["nOrgNum"]}}}],"PhaseID":[{"tml_elements":["ePhase"],"ePhase":"Liquid"},{"ePhase":"Crystal","tml_elements":["ePhase"]},{"tml_elements":["ePhase"],"ePhase":"Gas"}],"tml_elements":["nPureOrMixtureDataNumber","Component","eExpPurpose","sCompiler","sContributor","dateDateAdded","Property","PhaseID","Variable","NumValues"],"sContributor":"TRC"}],"THERMOML_MD5_CHECKSUM":"c285976ef110a94aacc681c52db836e9","Compound":[{"sStandardInChIKey":"GKAOGPIIYCISHV-IGMARMGPSA-N","sStandardInChI":"InChI=1S/Ne/i1+0","RegNum":{"nOrgNum":1,"tml_elements":["nOrgNum"]},"tml_elements":["RegNum","sStandardInChI","sStandardInChIKey","sCommonName","sFormulaMolec","Sample"],"Sample":[{"purity":[{"eAnalMeth":["Stated by supplier"],"nPurityMolDigits":4,"nStep":1,"tml_elements":["nStep","nPurityMol","nPurityMolDigits","eAnalMeth"],"nPurityMol":99.99}],"tml_elements":["nSampleNm","eSource","purity"],"nSampleNm":1,"eSource":"Commercial source"}],"sCommonName":["neon-20"],"sFormulaMolec":"Ne"},{"sStandardInChIKey":"GKAOGPIIYCISHV-NJFSPNSNSA-N","RegNum":{"nOrgNum":2,"tml_elements":["nOrgNum"]},"sStandardInChI":"InChI=1S/Ne/i1+2","sCommonName":["neon-22","neon, isotope of mass 22"],"tml_elements":["RegNum","sStandardInChI","sStandardInChIKey","sCommonName","sFormulaMolec","Sample"],"Sample":[{"purity":[{"eAnalMeth":["Stated by supplier"],"tml_elements":["nStep","nPurityMol","nPurityMolDigits","eAnalMeth"],"nPurityMol":99.9,"nStep":1,"nPurityMolDigits":3}],"tml_elements":["nSampleNm","eSource","purity"],"nSampleNm":1,"eSource":"Commercial source"}],"sFormulaMolec":"Ne"}],"Citation":{"eSourceType":"Original","sDOI":"10.1016/j.jct.2013.01.011","sTitle":"Experimental verification of ideality of 22Ne in 20Ne mixtures at the triple point  by means of certified artificial mixtures","sAbstract":"The paper reports the results of an experimental verification of the assumption of ideality for mixtures of  22Ne in 20Ne by means of binary mixtures, artificially-produced and certified by weighing and whose full  isotopic compositions were then measured at KRISS using a mass-spectrometer calibrated with these  mixtures. Thermal measurements on the mixtures were performed at INRIM. The assessment of the  validity of the ideality condition was critical to the conclusion of a comprehensive study on the effect  of neon isotopic composition on the values of its triple point temperature. At KRISS three mixtures were  prepared with 22Ne amount concentrations 22x = 62 088(20)   10 6, 91 678(22)   10 6 and  166 025(26)   10 6 in 20Ne, respectively, the intermediate one being very close to the range of  natural   compositions. The thermal measurements were performed in the same INRIM experimental apparatus  of previous published studies, with an expanded uncertainty (k = 2) of  30 lK for a single sample and   50 lK for the comparison of sample pairs, using the same model of cryogenic metal sealed cell for each  sample. The results, corrected for the measured, low, content of 21Ne and of relevant chemical impurities  (H2 and N2) showed an agreement with a theoretical model for the binary mixture assuming ideal behaviour  within 10 lK, with a standard uncertainty of uc = 50 lK. These results allowed to construct a ternarymixture  model for the actual neon isotopic composition, including 21Ne, where the IUPAC recommended  composition was used as the reference composition, and whose characteristics are discussed in the paper.  This also allowed reassigning the Ttp,90 values to all samples.","TRCRefID":{"yrYrPub":"2013","nAuthorn":"0","tml_elements":["yrYrPub","sAuthor1","sAuthor2","nAuthorn"],"sAuthor1":"ste","sAuthor2":"kim"},"sKeyword":["Neon isotopes","22Ne-20Ne mixtures","Ideality","Triple point temperature","ITS-90"],"sAuthor":["Steur, P. P. M.","Kim, J. S.[Jin Seog]","Giraudi, D.","Pavese, F."],"tml_elements":["TRCRefID","eType","eSourceType","sAuthor","sPubName","yrPubYr","dateCit","sTitle","sAbstract","sKeyword","sDOI","sVol","sPage"],"yrPubYr":"2013","sPubName":"J. Chem. Thermodyn.","dateCit":"2020-09-29","sPage":"87-93","sVol":"60","eType":"journal"},"Version":{"nVersionMajor":2,"nVersionMinor":0,"tml_elements":["nVersionMajor","nVersionMinor"]}}