{"Citation":{"sDOI":"10.1016/j.jct.2015.12.018","sTitle":"The effect of ketone groups on the energetic properties of phthalan derivatives","TRCRefID":{"yrYrPub":"2016","sAuthor1":"fre","sAuthor2":"san","tml_elements":["yrYrPub","sAuthor1","sAuthor2","nAuthorn"],"nAuthorn":"0"},"sAbstract":"In the present work the energetic properties of phthalide and phthalic anhydride are assessed experimental and computationally allowing to calculate the standard molar enthalpy of formation, in the gaseous phase, of each compound. These results enabled to analyze and interpret the enthalpic and structural molecular effects of one and two ketone groups in the main structure of phthalan. The high-temperature Calvet microcalorimetry and the static bomb combustion calorimetry were used to measure, respectively, the enthalpy of sublimation and the massic energy of combustion of the two compounds. These data were combined to derive the standard molar enthalpy of formation, in the gaseous phase, of phthalide and phthalic anhydride. The gas-phase enthalpies of formation of phthalide and phthalic anhydride compounds were estimated using the composite G3(MP2)//B3LYP approach together with adequate gas-phase working reactions. The computational study was also extended to phthalan and the reliability of the value obtained for the correspondent gas-phase enthalpy of formation, when compared with the experimental value reported in the literature, contributes to validate the computational methodology used. The good agreement verified between computational and experimental results for the other two phthalan derivatives studied gave us confidence to estimate the gas-phase enthalpy of formation of the 2,5-dihydrofuran that was not studied experimentally. Complementary, natural bond orbital (NBO) calculations were also performed, allowing an advance on the analysis of the structural and reactivity characteristics of this type of compounds.","sKeyword":["Enthalpy of formation","2,5-Dihydrofuran","Phthalan","Phthalide","Phthalic anhydride","Gama-lactones"],"sAuthor":["Freitas, V. L. S.[Vera L. S.]","Santos, C. P. F.[Claudia P. F.]","Ribeiro da Silva, M. D. M. C.[Maria D. M. C.]","Ribeiro da Silva, M. A. V.[Manuel A. V.]"],"tml_elements":["TRCRefID","eType","eSourceType","sAuthor","sPubName","yrPubYr","dateCit","sTitle","sAbstract","sKeyword","sDOI","sVol","sPage"],"eSourceType":"Original","sPage":"74-81","eType":"journal","sVol":"96","dateCit":"2020-09-29","yrPubYr":"2016","sPubName":"J. Chem. Thermodyn."},"Version":{"tml_elements":["nVersionMajor","nVersionMinor"],"nVersionMinor":0,"nVersionMajor":2},"ReactionData":[{"eReactionType":"Combustion with oxygen","tml_elements":["nReactionDataNumber","Participant","eExpPurpose","sCompiler","sContributor","dateDateAdded","eReactionType","Property","NumValues"],"Participant":[{"nSampleNm":1,"nStoichiometricCoef":"-1","RegNum":{"tml_elements":["nOrgNum"],"nOrgNum":4},"ePhase":"Crystal","tml_elements":["RegNum","nSampleNm","nStoichiometricCoef","ePhase"]},{"tml_elements":["RegNum","nStoichiometricCoef","ePhase"],"ePhase":"Ideal gas","nStoichiometricCoef":"8","RegNum":{"nOrgNum":1,"tml_elements":["nOrgNum"]}},{"nStoichiometricCoef":"3","RegNum":{"tml_elements":["nOrgNum"],"nOrgNum":2},"ePhase":"Liquid","tml_elements":["RegNum","nStoichiometricCoef","ePhase"]},{"nStoichiometricCoef":"-8.5","RegNum":{"nOrgNum":3,"tml_elements":["nOrgNum"]},"ePhase":"Ideal gas","tml_elements":["RegNum","nStoichiometricCoef","ePhase"]}],"sContributor":"TRC","nReactionDataNumber":1,"Property":[{"nTemperatureDigits":5,"Property-MethodID":{"tml_elements":["PropertyGroup"],"PropertyGroup":{"ReactionStateChangeProp":{"tml_elements":["ePropName","eMethodName"],"ePropName":"Specific internal energy of reaction at constant volume, J/g","eMethodName":"Static bomb calorimetry"},"tml_elements":["ReactionStateChangeProp"]}},"nPressureDigits":1,"nPressure-kPa":"100","nTemperature-K":"298.15","CombinedUncertainty":{"sCombUncertEvaluator":"Data file compiler","nCombUncertAssessNum":1,"nCombUncertLevOfConfid":95,"eCombUncertEvalMethod":"Propagation of evaluated standard uncertainties","tml_elements":["nCombUncertAssessNum","sCombUncertEvaluator","eCombUncertEvalMethod","nCombUncertLevOfConfid"]},"tml_elements":["nPropNumber","Property-MethodID","nTemperature-K","nTemperatureDigits","nPressure-kPa","nPressureDigits","CombinedUncertainty"],"nPropNumber":1}],"eExpPurpose":"Principal objective of the work","NumValues":[{"VariableValue":[],"PropertyValue":[{"CombinedUncertainty":{"nCombUncertAssessNum":1,"tml_elements":["nCombUncertAssessNum","nCombExpandUncertValue"],"nCombExpandUncertValue":9.13},"nPropValue":-27525.32,"nPropNumber":1,"nPropDigits":7,"tml_elements":["nPropNumber","nPropValue","nPropDigits","CombinedUncertainty"]}],"tml_elements":["PropertyValue"]}],"sCompiler":"AB","dateDateAdded":"3/18/2016"},{"NumValues":[{"VariableValue":[],"tml_elements":["PropertyValue"],"PropertyValue":[{"nPropValue":-22023.23,"CombinedUncertainty":{"nCombUncertAssessNum":1,"nCombExpandUncertValue":9.44,"tml_elements":["nCombUncertAssessNum","nCombExpandUncertValue"]},"nPropDigits":7,"nPropNumber":1,"tml_elements":["nPropNumber","nPropValue","nPropDigits","CombinedUncertainty"]}]}],"dateDateAdded":"3/18/2016","sCompiler":"AB","eExpPurpose":"Principal objective of the work","Property":[{"tml_elements":["nPropNumber","Property-MethodID","nTemperature-K","nTemperatureDigits","nPressure-kPa","nPressureDigits","CombinedUncertainty"],"nPropNumber":1,"nTemperatureDigits":5,"Property-MethodID":{"tml_elements":["PropertyGroup"],"PropertyGroup":{"tml_elements":["ReactionStateChangeProp"],"ReactionStateChangeProp":{"tml_elements":["ePropName","eMethodName"],"ePropName":"Specific internal energy of reaction at constant volume, J/g","eMethodName":"Static bomb calorimetry"}}},"nPressureDigits":1,"nPressure-kPa":"100","nTemperature-K":"298.15","CombinedUncertainty":{"sCombUncertEvaluator":"Data file compiler","nCombUncertAssessNum":1,"nCombUncertLevOfConfid":95,"eCombUncertEvalMethod":"Propagation of evaluated standard uncertainties","tml_elements":["nCombUncertAssessNum","sCombUncertEvaluator","eCombUncertEvalMethod","nCombUncertLevOfConfid"]}}],"sContributor":"TRC","nReactionDataNumber":2,"Participant":[{"nSampleNm":1,"nStoichiometricCoef":"-1","RegNum":{"tml_elements":["nOrgNum"],"nOrgNum":5},"ePhase":"Crystal","tml_elements":["RegNum","nSampleNm","nStoichiometricCoef","ePhase"]},{"RegNum":{"tml_elements":["nOrgNum"],"nOrgNum":1},"nStoichiometricCoef":"8","tml_elements":["RegNum","nStoichiometricCoef","ePhase"],"ePhase":"Ideal gas"},{"tml_elements":["RegNum","nStoichiometricCoef","ePhase"],"ePhase":"Liquid","RegNum":{"tml_elements":["nOrgNum"],"nOrgNum":2},"nStoichiometricCoef":"2"},{"nStoichiometricCoef":"-7.5","RegNum":{"nOrgNum":3,"tml_elements":["nOrgNum"]},"tml_elements":["RegNum","nStoichiometricCoef","ePhase"],"ePhase":"Ideal gas"}],"tml_elements":["nReactionDataNumber","Participant","eExpPurpose","sCompiler","sContributor","dateDateAdded","eReactionType","Property","NumValues"],"eReactionType":"Combustion with oxygen"}],"PureOrMixtureData":[{"tml_elements":["nPureOrMixtureDataNumber","Component","eExpPurpose","sCompiler","sContributor","dateDateAdded","Property","PhaseID","Variable","NumValues"],"PhaseID":[{"tml_elements":["ePhase"],"ePhase":"Crystal"},{"tml_elements":["ePhase"],"ePhase":"Gas"}],"sContributor":"TRC","Component":[{"RegNum":{"tml_elements":["nOrgNum"],"nOrgNum":4},"nSampleNm":1,"tml_elements":["RegNum","nSampleNm"]}],"Variable":[{"VariableID":{"VariableType":{"eTemperature":"Temperature, K","tml_elements":["eTemperature"]},"tml_elements":["VariableType"]},"VarPhaseID":{"tml_elements":["eVarPhase"],"eVarPhase":"Crystal"},"nVarNumber":1,"tml_elements":["nVarNumber","VariableID","VarPhaseID"]}],"eExpPurpose":"Principal objective of the work","Property":[{"nPropNumber":1,"PropPhaseID":{"ePropPhase":"Crystal","tml_elements":["ePropPhase"]},"tml_elements":["nPropNumber","Property-MethodID","PropPhaseID","ePresentation","CombinedUncertainty"],"ePresentation":"Direct value, X","CombinedUncertainty":{"nCombUncertAssessNum":1,"sCombUncertEvaluator":"Data file compiler","tml_elements":["nCombUncertAssessNum","sCombUncertEvaluator","eCombUncertEvalMethod","nCombUncertLevOfConfid"],"nCombUncertLevOfConfid":95,"eCombUncertEvalMethod":"Propagation of evaluated standard uncertainties"},"Property-MethodID":{"tml_elements":["PropertyGroup"],"PropertyGroup":{"PhaseTransition":{"ePropName":"Molar enthalpy of vaporization or sublimation, kJ/mol","eMethodName":"Static calorimetry","tml_elements":["ePropName","eMethodName"]},"tml_elements":["PhaseTransition"]}}}],"NumValues":[{"VariableValue":[{"nVarValue":298.15,"nVarDigits":5,"tml_elements":["nVarNumber","nVarValue","nVarDigits"],"nVarNumber":1}],"tml_elements":["VariableValue","PropertyValue"],"PropertyValue":[{"tml_elements":["nPropNumber","nPropValue","nPropDigits","CombinedUncertainty"],"nPropDigits":3,"nPropNumber":1,"nPropValue":88.4,"CombinedUncertainty":{"nCombExpandUncertValue":4.4,"tml_elements":["nCombUncertAssessNum","nCombExpandUncertValue"],"nCombUncertAssessNum":1}}]}],"nPureOrMixtureDataNumber":1,"dateDateAdded":"3/18/2016","sCompiler":"AB"},{"dateDateAdded":"3/18/2016","nPureOrMixtureDataNumber":2,"sCompiler":"AB","NumValues":[{"VariableValue":[{"nVarValue":347.9,"tml_elements":["nVarNumber","nVarValue","nVarDigits"],"nVarDigits":4,"nVarNumber":1}],"PropertyValue":[{"CombinedUncertainty":{"nCombUncertAssessNum":1,"nCombExpandUncertValue":2.2,"tml_elements":["nCombUncertAssessNum","nCombExpandUncertValue"]},"nPropValue":95.4,"tml_elements":["nPropNumber","nPropValue","nPropDigits","CombinedUncertainty"],"nPropDigits":3,"nPropNumber":1}],"tml_elements":["VariableValue","PropertyValue"]}],"Property":[{"CombinedUncertainty":{"eCombUncertEvalMethod":"Propagation of evaluated standard uncertainties","nCombUncertLevOfConfid":95,"tml_elements":["nCombUncertAssessNum","sCombUncertEvaluator","eCombUncertEvalMethod","nCombUncertLevOfConfid"],"sCombUncertEvaluator":"Data file compiler","nCombUncertAssessNum":1},"eRefStateType":"Reference phase with the same composition at fixed temperature and pressure","nRefPressure":"100","nRefTempDigits":5,"tml_elements":["nPropNumber","Property-MethodID","PropPhaseID","ePresentation","eRefStateType","nRefTemp","nRefTempDigits","nRefPressure","nRefPressureDigits","RefPhaseID","CombinedUncertainty"],"nPropNumber":1,"PropPhaseID":{"tml_elements":["ePropPhase"],"ePropPhase":"Gas"},"nRefTemp":"298.15","nRefPressureDigits":1,"Property-MethodID":{"PropertyGroup":{"tml_elements":["HeatCapacityAndDerivedProp"],"HeatCapacityAndDerivedProp":{"tml_elements":["ePropName","eMethodName"],"ePropName":"Molar enthalpy, kJ/mol","eMethodName":"Drop calorimetry"}},"tml_elements":["PropertyGroup"]},"RefPhaseID":{"tml_elements":["eRefPhase"],"eRefPhase":"Crystal"},"ePresentation":"Difference with the reference state, X-X(REF)"}],"eExpPurpose":"Principal objective of the work","sContributor":"TRC","Variable":[{"VariableID":{"VariableType":{"tml_elements":["eTemperature"],"eTemperature":"Temperature, K"},"tml_elements":["VariableType"]},"tml_elements":["nVarNumber","VariableID","VarPhaseID"],"nVarNumber":1,"VarPhaseID":{"tml_elements":["eVarPhase"],"eVarPhase":"Gas"}}],"tml_elements":["nPureOrMixtureDataNumber","Component","eExpPurpose","sCompiler","sContributor","dateDateAdded","Property","PhaseID","Variable","NumValues"],"PhaseID":[{"tml_elements":["ePhase"],"ePhase":"Gas"},{"ePhase":"Crystal","tml_elements":["ePhase"]}],"Component":[{"RegNum":{"nOrgNum":4,"tml_elements":["nOrgNum"]},"nSampleNm":1,"tml_elements":["RegNum","nSampleNm"]}]},{"tml_elements":["nPureOrMixtureDataNumber","Component","eExpPurpose","sCompiler","sContributor","dateDateAdded","Property","PhaseID","Variable","NumValues"],"PhaseID":[{"tml_elements":["ePhase"],"ePhase":"Crystal"},{"ePhase":"Gas","tml_elements":["ePhase"]}],"Component":[{"tml_elements":["RegNum","nSampleNm"],"nSampleNm":1,"RegNum":{"nOrgNum":5,"tml_elements":["nOrgNum"]}}],"sContributor":"TRC","Variable":[{"VariableID":{"tml_elements":["VariableType"],"VariableType":{"eTemperature":"Temperature, K","tml_elements":["eTemperature"]}},"nVarNumber":1,"VarPhaseID":{"eVarPhase":"Crystal","tml_elements":["eVarPhase"]},"tml_elements":["nVarNumber","VariableID","VarPhaseID"]}],"eExpPurpose":"Principal objective of the work","Property":[{"CombinedUncertainty":{"tml_elements":["nCombUncertAssessNum","sCombUncertEvaluator","eCombUncertEvalMethod","nCombUncertLevOfConfid"],"nCombUncertLevOfConfid":95,"eCombUncertEvalMethod":"Propagation of evaluated standard uncertainties","nCombUncertAssessNum":1,"sCombUncertEvaluator":"Data file compiler"},"ePresentation":"Direct value, X","tml_elements":["nPropNumber","Property-MethodID","PropPhaseID","ePresentation","CombinedUncertainty"],"PropPhaseID":{"tml_elements":["ePropPhase"],"ePropPhase":"Crystal"},"Property-MethodID":{"PropertyGroup":{"PhaseTransition":{"tml_elements":["ePropName","eMethodName"],"ePropName":"Molar enthalpy of vaporization or sublimation, kJ/mol","eMethodName":"Static calorimetry"},"tml_elements":["PhaseTransition"]},"tml_elements":["PropertyGroup"]},"nPropNumber":1}],"nPureOrMixtureDataNumber":3,"dateDateAdded":"3/18/2016","sCompiler":"AB","NumValues":[{"VariableValue":[{"nVarNumber":1,"tml_elements":["nVarNumber","nVarValue","nVarDigits"],"nVarDigits":5,"nVarValue":298.15}],"PropertyValue":[{"nPropDigits":3,"nPropNumber":1,"tml_elements":["nPropNumber","nPropValue","nPropDigits","CombinedUncertainty"],"CombinedUncertainty":{"nCombUncertAssessNum":1,"tml_elements":["nCombUncertAssessNum","nCombExpandUncertValue"],"nCombExpandUncertValue":4.7},"nPropValue":87.9}],"tml_elements":["VariableValue","PropertyValue"]}]},{"Component":[{"RegNum":{"nOrgNum":5,"tml_elements":["nOrgNum"]},"nSampleNm":1,"tml_elements":["RegNum","nSampleNm"]}],"tml_elements":["nPureOrMixtureDataNumber","Component","eExpPurpose","sCompiler","sContributor","dateDateAdded","Property","PhaseID","Variable","NumValues"],"PhaseID":[{"tml_elements":["ePhase"],"ePhase":"Gas"},{"tml_elements":["ePhase"],"ePhase":"Crystal"}],"sContributor":"TRC","Variable":[{"VariableID":{"VariableType":{"eTemperature":"Temperature, K","tml_elements":["eTemperature"]},"tml_elements":["VariableType"]},"nVarNumber":1,"VarPhaseID":{"tml_elements":["eVarPhase"],"eVarPhase":"Gas"},"tml_elements":["nVarNumber","VariableID","VarPhaseID"]}],"eExpPurpose":"Principal objective of the work","Property":[{"ePresentation":"Difference with the reference state, X-X(REF)","nRefTemp":"298.15","nRefPressureDigits":1,"Property-MethodID":{"PropertyGroup":{"HeatCapacityAndDerivedProp":{"eMethodName":"Drop calorimetry","ePropName":"Molar enthalpy, kJ/mol","tml_elements":["ePropName","eMethodName"]},"tml_elements":["HeatCapacityAndDerivedProp"]},"tml_elements":["PropertyGroup"]},"RefPhaseID":{"tml_elements":["eRefPhase"],"eRefPhase":"Crystal"},"nRefTempDigits":5,"tml_elements":["nPropNumber","Property-MethodID","PropPhaseID","ePresentation","eRefStateType","nRefTemp","nRefTempDigits","nRefPressure","nRefPressureDigits","RefPhaseID","CombinedUncertainty"],"nPropNumber":1,"PropPhaseID":{"tml_elements":["ePropPhase"],"ePropPhase":"Gas"},"CombinedUncertainty":{"sCombUncertEvaluator":"Data file compiler","nCombUncertAssessNum":1,"nCombUncertLevOfConfid":95,"eCombUncertEvalMethod":"Propagation of evaluated standard uncertainties","tml_elements":["nCombUncertAssessNum","sCombUncertEvaluator","eCombUncertEvalMethod","nCombUncertLevOfConfid"]},"eRefStateType":"Reference phase with the same composition at fixed temperature and pressure","nRefPressure":"100"}],"NumValues":[{"PropertyValue":[{"nPropDigits":4,"nPropNumber":1,"tml_elements":["nPropNumber","nPropValue","nPropDigits","CombinedUncertainty"],"nPropValue":102.8,"CombinedUncertainty":{"nCombExpandUncertValue":2.5,"tml_elements":["nCombUncertAssessNum","nCombExpandUncertValue"],"nCombUncertAssessNum":1}}],"tml_elements":["VariableValue","PropertyValue"],"VariableValue":[{"tml_elements":["nVarNumber","nVarValue","nVarDigits"],"nVarDigits":4,"nVarNumber":1,"nVarValue":393.1}]}],"dateDateAdded":"3/18/2016","nPureOrMixtureDataNumber":4,"sCompiler":"AB"}],"tml_elements":["Version","Citation","Compound","PureOrMixtureData","ReactionData"],"Compound":[{"sFormulaMolec":"CO2","sStandardInChIKey":"CURLTUGMZLYLDI-UHFFFAOYSA-N","tml_elements":["RegNum","sStandardInChI","sStandardInChIKey","sCommonName","sFormulaMolec"],"sCommonName":["carbon dioxide"],"RegNum":{"nOrgNum":1,"tml_elements":["nOrgNum"]},"sStandardInChI":"InChI=1S/CO2/c2-1-3"},{"sStandardInChIKey":"XLYOFNOQVPJJNP-UHFFFAOYSA-N","sStandardInChI":"InChI=1S/H2O/h1H2","RegNum":{"tml_elements":["nOrgNum"],"nOrgNum":2},"tml_elements":["RegNum","sStandardInChI","sStandardInChIKey","sCommonName","sFormulaMolec"],"sCommonName":["water"],"sFormulaMolec":"H2O"},{"RegNum":{"nOrgNum":3,"tml_elements":["nOrgNum"]},"sStandardInChI":"InChI=1S/O2/c1-2","sStandardInChIKey":"MYMOFIZGZYHOMD-UHFFFAOYSA-N","sFormulaMolec":"O2","tml_elements":["RegNum","sStandardInChI","sStandardInChIKey","sCommonName","sFormulaMolec"],"sCommonName":["oxygen"]},{"sFormulaMolec":"C8H6O2","Sample":[{"purity":[{"eAnalMeth":["Stated by supplier"],"nPurityMol":99.8,"tml_elements":["nStep","nPurityMol","nPurityMolDigits","eAnalMeth"],"nPurityMolDigits":3,"nStep":1},{"ePurifMethod":["Sublimation"],"tml_elements":["nStep","ePurifMethod"],"nStep":2},{"nPurityMassDigits":4,"tml_elements":["nStep","nPurityMass","nPurityMassDigits","eAnalMeth"],"nStep":3,"eAnalMeth":["CO2 yield in combustion products"],"nPurityMass":99.99}],"tml_elements":["nSampleNm","eSource","purity"],"eSource":"Commercial source","nSampleNm":1}],"sCommonName":["1(3H)-isobenzofuranone","phthalide"],"tml_elements":["RegNum","sStandardInChI","sStandardInChIKey","sCommonName","sFormulaMolec","Sample"],"sStandardInChIKey":"WNZQDUSMALZDQF-UHFFFAOYSA-N","sStandardInChI":"InChI=1S/C8H6O2/c9-8-7-4-2-1-3-6(7)5-10-8/h1-4H,5H2","RegNum":{"nOrgNum":4,"tml_elements":["nOrgNum"]}},{"sFormulaMolec":"C8H4O3","Sample":[{"tml_elements":["nSampleNm","eSource","purity"],"purity":[{"eAnalMeth":["Stated by supplier"],"nPurityMolDigits":3,"nStep":1,"nPurityMol":99.4,"tml_elements":["nStep","nPurityMol","nPurityMolDigits","eAnalMeth"]},{"tml_elements":["nStep","ePurifMethod"],"nStep":2,"ePurifMethod":["Sublimation"]},{"nStep":3,"nPurityMassDigits":4,"tml_elements":["nStep","nPurityMass","nPurityMassDigits","eAnalMeth"],"nPurityMass":99.99,"eAnalMeth":["CO2 yield in combustion products"]}],"nSampleNm":1,"eSource":"Commercial source"}],"tml_elements":["RegNum","sStandardInChI","sStandardInChIKey","sCommonName","sFormulaMolec","Sample"],"sCommonName":["isobenzofuran-1,3-dione","1,2-benzenedicarboxylic anhydride","phthalic anhydride"],"sStandardInChIKey":"LGRFSURHDFAFJT-UHFFFAOYSA-N","sStandardInChI":"InChI=1S/C8H4O3/c9-7-5-3-1-2-4-6(5)8(10)11-7/h1-4H","RegNum":{"tml_elements":["nOrgNum"],"nOrgNum":5}}],"THERMOML_MD5_CHECKSUM":"5682766a4949b3ebec3a4c0e87178d7e"}