{"tml_elements":["Version","Citation","Compound","PureOrMixtureData","ReactionData"],"ReactionData":[{"nReactionDataNumber":1,"sContributor":"TRC","tml_elements":["nReactionDataNumber","Participant","eExpPurpose","sCompiler","sContributor","dateDateAdded","eReactionType","Property","NumValues"],"Participant":[{"nStoichiometricCoef":"-2","RegNum":{"tml_elements":["nOrgNum"],"nOrgNum":1},"tml_elements":["RegNum","nStoichiometricCoef","ePhase"],"ePhase":"Crystal"},{"tml_elements":["RegNum","nStoichiometricCoef","ePhase"],"ePhase":"Crystal","nStoichiometricCoef":"-2","RegNum":{"tml_elements":["nOrgNum"],"nOrgNum":2}},{"tml_elements":["RegNum","nSampleNm","nStoichiometricCoef","ePhase"],"ePhase":"Crystal 3","nStoichiometricCoef":"1","nSampleNm":1,"RegNum":{"tml_elements":["nOrgNum"],"nOrgNum":4}},{"RegNum":{"tml_elements":["nOrgNum"],"nOrgNum":3},"nStoichiometricCoef":"-2.5","ePhase":"Ideal gas","tml_elements":["RegNum","nStoichiometricCoef","ePhase"]}],"eReactionType":"Formation of a compound from elements in their stable state","dateDateAdded":"9/24/2015","sCompiler":"AB","NumValues":[{"VariableValue":[],"PropertyValue":[{"nPropNumber":1,"nPropDigits":5,"tml_elements":["nPropNumber","nPropValue","nPropDigits","CombinedUncertainty"],"CombinedUncertainty":{"nCombUncertAssessNum":1,"nCombExpandUncertValue":27.1,"tml_elements":["nCombUncertAssessNum","nCombExpandUncertValue"]},"nPropValue":-2125.7}],"tml_elements":["PropertyValue"]}],"Property":[{"nPropNumber":1,"tml_elements":["nPropNumber","Property-MethodID","nTemperature-K","nTemperatureDigits","nPressure-kPa","nPressureDigits","CombinedUncertainty"],"Property-MethodID":{"tml_elements":["PropertyGroup"],"PropertyGroup":{"ReactionStateChangeProp":{"tml_elements":["ePropName","eMethodName"],"ePropName":"Molar enthalpy of reaction, kJ/mol","eMethodName":"Solution calorimetry"},"tml_elements":["ReactionStateChangeProp"]}},"nTemperatureDigits":5,"nTemperature-K":"298.15","CombinedUncertainty":{"tml_elements":["nCombUncertAssessNum","sCombUncertEvaluator","eCombUncertEvalMethod","nCombUncertLevOfConfid"],"nCombUncertLevOfConfid":95,"eCombUncertEvalMethod":"Propagation of evaluated standard uncertainties","nCombUncertAssessNum":1,"sCombUncertEvaluator":"Data file compiler"},"nPressure-kPa":"101","nPressureDigits":3}],"eExpPurpose":"Principal objective of the work"}],"PureOrMixtureData":[{"Component":[{"tml_elements":["RegNum","nSampleNm"],"RegNum":{"nOrgNum":4,"tml_elements":["nOrgNum"]},"nSampleNm":1}],"tml_elements":["nPureOrMixtureDataNumber","Component","eExpPurpose","sCompiler","sContributor","dateDateAdded","Property","PhaseID","NumValues"],"PhaseID":[{"ePhase":"Crystal 3","tml_elements":["ePhase"]},{"tml_elements":["ePhase"],"ePhase":"Crystal 2"},{"tml_elements":["ePhase"],"ePhase":"Air at 1 atmosphere"}],"sContributor":"TRC","eExpPurpose":"Principal objective of the work","Property":[{"ePresentation":"Direct value, X","tml_elements":["nPropNumber","Property-MethodID","PropPhaseID","ePresentation","CombinedUncertainty"],"PropPhaseID":{"tml_elements":["ePropPhase"],"ePropPhase":"Crystal 3"},"nPropNumber":1,"CombinedUncertainty":{"tml_elements":["nCombUncertAssessNum","sCombUncertEvaluator","eCombUncertEvalMethod","nCombUncertLevOfConfid"],"nCombUncertLevOfConfid":95,"eCombUncertEvalMethod":"Propagation of evaluated standard uncertainties","nCombUncertAssessNum":1,"sCombUncertEvaluator":"Data file compiler"},"Property-MethodID":{"PropertyGroup":{"PhaseTransition":{"tml_elements":["ePropName","sMethodName"],"ePropName":"Triple point temperature, K","sMethodName":"DTA"},"tml_elements":["PhaseTransition"]},"tml_elements":["PropertyGroup"]}}],"NumValues":[{"tml_elements":["PropertyValue"],"PropertyValue":[{"tml_elements":["nPropNumber","nPropValue","nPropDigits","CombinedUncertainty"],"nPropDigits":4,"nPropNumber":1,"CombinedUncertainty":{"nCombUncertAssessNum":1,"tml_elements":["nCombUncertAssessNum","nCombExpandUncertValue"],"nCombExpandUncertValue":1},"nPropValue":1195}],"VariableValue":[]}],"nPureOrMixtureDataNumber":1,"dateDateAdded":"9/24/2015","sCompiler":"AB"},{"NumValues":[{"PropertyValue":[{"nPropValue":1316,"CombinedUncertainty":{"nCombExpandUncertValue":1,"tml_elements":["nCombUncertAssessNum","nCombExpandUncertValue"],"nCombUncertAssessNum":1},"tml_elements":["nPropNumber","nPropValue","nPropDigits","CombinedUncertainty"],"nPropNumber":1,"nPropDigits":4}],"tml_elements":["PropertyValue"],"VariableValue":[]}],"nPureOrMixtureDataNumber":2,"dateDateAdded":"9/24/2015","sCompiler":"AB","Property":[{"PropPhaseID":{"tml_elements":["ePropPhase"],"ePropPhase":"Crystal 2"},"Property-MethodID":{"PropertyGroup":{"tml_elements":["PhaseTransition"],"PhaseTransition":{"tml_elements":["ePropName","sMethodName"],"sMethodName":"DTA","ePropName":"Triple point temperature, K"}},"tml_elements":["PropertyGroup"]},"nPropNumber":1,"ePresentation":"Direct value, X","tml_elements":["nPropNumber","Property-MethodID","PropPhaseID","ePresentation","CombinedUncertainty"],"CombinedUncertainty":{"sCombUncertEvaluator":"Data file compiler","nCombUncertAssessNum":1,"eCombUncertEvalMethod":"Propagation of evaluated standard uncertainties","nCombUncertLevOfConfid":95,"tml_elements":["nCombUncertAssessNum","sCombUncertEvaluator","eCombUncertEvalMethod","nCombUncertLevOfConfid"]}}],"eExpPurpose":"Principal objective of the work","sContributor":"TRC","Component":[{"RegNum":{"nOrgNum":4,"tml_elements":["nOrgNum"]},"nSampleNm":1,"tml_elements":["RegNum","nSampleNm"]}],"tml_elements":["nPureOrMixtureDataNumber","Component","eExpPurpose","sCompiler","sContributor","dateDateAdded","Property","PhaseID","NumValues"],"PhaseID":[{"tml_elements":["ePhase"],"ePhase":"Crystal 2"},{"tml_elements":["ePhase"],"ePhase":"Crystal 1"},{"tml_elements":["ePhase"],"ePhase":"Air at 1 atmosphere"}]},{"Component":[{"tml_elements":["RegNum","nSampleNm"],"nSampleNm":1,"RegNum":{"tml_elements":["nOrgNum"],"nOrgNum":4}}],"PhaseID":[{"tml_elements":["ePhase"],"ePhase":"Crystal 3"}],"tml_elements":["nPureOrMixtureDataNumber","Component","eExpPurpose","sCompiler","sContributor","dateDateAdded","Property","PhaseID","Constraint","Variable","NumValues"],"Variable":[{"VariableID":{"tml_elements":["VariableType"],"VariableType":{"eTemperature":"Temperature, K","tml_elements":["eTemperature"]}},"tml_elements":["nVarNumber","VariableID","VarPhaseID"],"nVarNumber":1,"VarPhaseID":{"eVarPhase":"Crystal 3","tml_elements":["eVarPhase"]}}],"sContributor":"TRC","Constraint":[{"nConstraintNumber":1,"nConstrDigits":6,"ConstraintID":{"tml_elements":["ConstraintType"],"ConstraintType":{"tml_elements":["ePressure"],"ePressure":"Pressure, kPa"}},"tml_elements":["nConstraintNumber","ConstraintID","ConstraintPhaseID","nConstraintValue","nConstrDigits"],"ConstraintPhaseID":{"eConstraintPhase":"Crystal 3","tml_elements":["eConstraintPhase"]},"nConstraintValue":101.325}],"Property":[{"eRefStateType":"Reference phase with the same composition at fixed temperature and pressure","nRefPressure":"101","CombinedUncertainty":{"eCombUncertEvalMethod":"Propagation of evaluated standard uncertainties","nCombUncertLevOfConfid":95,"tml_elements":["nCombUncertAssessNum","sCombUncertEvaluator","eCombUncertEvalMethod","nCombUncertLevOfConfid"],"sCombUncertEvaluator":"Data file compiler","nCombUncertAssessNum":1},"tml_elements":["nPropNumber","Property-MethodID","PropPhaseID","ePresentation","eRefStateType","nRefTemp","nRefTempDigits","nRefPressure","nRefPressureDigits","RefPhaseID","CombinedUncertainty"],"nPropNumber":1,"PropPhaseID":{"ePropPhase":"Crystal 3","tml_elements":["ePropPhase"]},"nRefTempDigits":5,"nRefPressureDigits":3,"Property-MethodID":{"tml_elements":["PropertyGroup"],"PropertyGroup":{"tml_elements":["HeatCapacityAndDerivedProp"],"HeatCapacityAndDerivedProp":{"tml_elements":["ePropName","eMethodName"],"eMethodName":"Drop calorimetry","ePropName":"Molar enthalpy, kJ/mol"}}},"RefPhaseID":{"eRefPhase":"Crystal 3","tml_elements":["eRefPhase"]},"nRefTemp":"298.15","ePresentation":"Difference with the reference state, X-X(REF)"}],"eExpPurpose":"Principal objective of the work","NumValues":[{"PropertyValue":[{"tml_elements":["nPropNumber","nPropValue","nPropDigits","CombinedUncertainty"],"nPropDigits":6,"nPropNumber":1,"nPropValue":12.3764,"CombinedUncertainty":{"nCombExpandUncertValue":0.4565,"tml_elements":["nCombUncertAssessNum","nCombExpandUncertValue"],"nCombUncertAssessNum":1}}],"tml_elements":["VariableValue","PropertyValue"],"VariableValue":[{"nVarValue":350,"nVarDigits":2,"tml_elements":["nVarNumber","nVarValue","nVarDigits"],"nVarNumber":1}]},{"VariableValue":[{"nVarValue":375.5,"tml_elements":["nVarNumber","nVarValue","nVarDigits"],"nVarDigits":4,"nVarNumber":1}],"PropertyValue":[{"nPropValue":17.4674,"CombinedUncertainty":{"tml_elements":["nCombUncertAssessNum","nCombExpandUncertValue"],"nCombExpandUncertValue":0.6431,"nCombUncertAssessNum":1},"tml_elements":["nPropNumber","nPropValue","nPropDigits","CombinedUncertainty"],"nPropDigits":6,"nPropNumber":1}],"tml_elements":["VariableValue","PropertyValue"]},{"PropertyValue":[{"CombinedUncertainty":{"nCombExpandUncertValue":1.0219,"tml_elements":["nCombUncertAssessNum","nCombExpandUncertValue"],"nCombUncertAssessNum":1},"nPropValue":27.7863,"tml_elements":["nPropNumber","nPropValue","nPropDigits","CombinedUncertainty"],"nPropDigits":6,"nPropNumber":1}],"tml_elements":["VariableValue","PropertyValue"],"VariableValue":[{"nVarNumber":1,"tml_elements":["nVarNumber","nVarValue","nVarDigits"],"nVarDigits":3,"nVarValue":426}]},{"PropertyValue":[{"nPropDigits":6,"nPropNumber":1,"tml_elements":["nPropNumber","nPropValue","nPropDigits","CombinedUncertainty"],"CombinedUncertainty":{"nCombUncertAssessNum":1,"nCombExpandUncertValue":1.4735,"tml_elements":["nCombUncertAssessNum","nCombExpandUncertValue"]},"nPropValue":40.0819}],"tml_elements":["VariableValue","PropertyValue"],"VariableValue":[{"nVarValue":477,"tml_elements":["nVarNumber","nVarValue","nVarDigits"],"nVarDigits":3,"nVarNumber":1}]},{"VariableValue":[{"nVarDigits":3,"tml_elements":["nVarNumber","nVarValue","nVarDigits"],"nVarNumber":1,"nVarValue":528}],"PropertyValue":[{"nPropNumber":1,"nPropDigits":6,"tml_elements":["nPropNumber","nPropValue","nPropDigits","CombinedUncertainty"],"nPropValue":52.8996,"CombinedUncertainty":{"tml_elements":["nCombUncertAssessNum","nCombExpandUncertValue"],"nCombExpandUncertValue":1.9442,"nCombUncertAssessNum":1}}],"tml_elements":["VariableValue","PropertyValue"]},{"VariableValue":[{"nVarValue":579,"nVarDigits":3,"tml_elements":["nVarNumber","nVarValue","nVarDigits"],"nVarNumber":1}],"PropertyValue":[{"nPropValue":64.4617,"CombinedUncertainty":{"tml_elements":["nCombUncertAssessNum","nCombExpandUncertValue"],"nCombExpandUncertValue":2.3689,"nCombUncertAssessNum":1},"tml_elements":["nPropNumber","nPropValue","nPropDigits","CombinedUncertainty"],"nPropNumber":1,"nPropDigits":6}],"tml_elements":["VariableValue","PropertyValue"]},{"tml_elements":["VariableValue","PropertyValue"],"PropertyValue":[{"nPropValue":74.7743,"CombinedUncertainty":{"nCombUncertAssessNum":1,"tml_elements":["nCombUncertAssessNum","nCombExpandUncertValue"],"nCombExpandUncertValue":2.7478},"nPropDigits":6,"nPropNumber":1,"tml_elements":["nPropNumber","nPropValue","nPropDigits","CombinedUncertainty"]}],"VariableValue":[{"nVarValue":630,"nVarDigits":2,"tml_elements":["nVarNumber","nVarValue","nVarDigits"],"nVarNumber":1}]},{"tml_elements":["VariableValue","PropertyValue"],"PropertyValue":[{"tml_elements":["nPropNumber","nPropValue","nPropDigits","CombinedUncertainty"],"nPropNumber":1,"nPropDigits":6,"CombinedUncertainty":{"tml_elements":["nCombUncertAssessNum","nCombExpandUncertValue"],"nCombExpandUncertValue":3.2728,"nCombUncertAssessNum":1},"nPropValue":89.0653}],"VariableValue":[{"nVarDigits":3,"tml_elements":["nVarNumber","nVarValue","nVarDigits"],"nVarNumber":1,"nVarValue":681}]},{"VariableValue":[{"nVarDigits":3,"tml_elements":["nVarNumber","nVarValue","nVarDigits"],"nVarNumber":1,"nVarValue":732}],"PropertyValue":[{"CombinedUncertainty":{"nCombUncertAssessNum":1,"tml_elements":["nCombUncertAssessNum","nCombExpandUncertValue"],"nCombExpandUncertValue":3.6451},"nPropValue":99.1976,"tml_elements":["nPropNumber","nPropValue","nPropDigits","CombinedUncertainty"],"nPropNumber":1,"nPropDigits":6}],"tml_elements":["VariableValue","PropertyValue"]},{"VariableValue":[{"nVarValue":783,"tml_elements":["nVarNumber","nVarValue","nVarDigits"],"nVarDigits":3,"nVarNumber":1}],"tml_elements":["VariableValue","PropertyValue"],"PropertyValue":[{"nPropValue":114.9183,"CombinedUncertainty":{"tml_elements":["nCombUncertAssessNum","nCombExpandUncertValue"],"nCombExpandUncertValue":4.2226,"nCombUncertAssessNum":1},"tml_elements":["nPropNumber","nPropValue","nPropDigits","CombinedUncertainty"],"nPropDigits":7,"nPropNumber":1}]},{"VariableValue":[{"nVarNumber":1,"nVarDigits":3,"tml_elements":["nVarNumber","nVarValue","nVarDigits"],"nVarValue":834}],"tml_elements":["VariableValue","PropertyValue"],"PropertyValue":[{"tml_elements":["nPropNumber","nPropValue","nPropDigits","CombinedUncertainty"],"nPropNumber":1,"nPropDigits":7,"CombinedUncertainty":{"nCombUncertAssessNum":1,"tml_elements":["nCombUncertAssessNum","nCombExpandUncertValue"],"nCombExpandUncertValue":4.4976},"nPropValue":122.4026}]},{"VariableValue":[{"nVarValue":885,"nVarNumber":1,"tml_elements":["nVarNumber","nVarValue","nVarDigits"],"nVarDigits":3}],"tml_elements":["VariableValue","PropertyValue"],"PropertyValue":[{"CombinedUncertainty":{"nCombUncertAssessNum":1,"tml_elements":["nCombUncertAssessNum","nCombExpandUncertValue"],"nCombExpandUncertValue":5.0485},"nPropValue":137.396,"tml_elements":["nPropNumber","nPropValue","nPropDigits","CombinedUncertainty"],"nPropNumber":1,"nPropDigits":7}]},{"PropertyValue":[{"nPropDigits":7,"nPropNumber":1,"tml_elements":["nPropNumber","nPropValue","nPropDigits","CombinedUncertainty"],"nPropValue":147.7707,"CombinedUncertainty":{"nCombUncertAssessNum":1,"tml_elements":["nCombUncertAssessNum","nCombExpandUncertValue"],"nCombExpandUncertValue":5.4297}}],"tml_elements":["VariableValue","PropertyValue"],"VariableValue":[{"nVarValue":936,"nVarNumber":1,"tml_elements":["nVarNumber","nVarValue","nVarDigits"],"nVarDigits":3}]},{"tml_elements":["VariableValue","PropertyValue"],"PropertyValue":[{"CombinedUncertainty":{"nCombUncertAssessNum":1,"tml_elements":["nCombUncertAssessNum","nCombExpandUncertValue"],"nCombExpandUncertValue":6.1149},"nPropValue":166.4131,"tml_elements":["nPropNumber","nPropValue","nPropDigits","CombinedUncertainty"],"nPropNumber":1,"nPropDigits":7}],"VariableValue":[{"nVarDigits":4,"tml_elements":["nVarNumber","nVarValue","nVarDigits"],"nVarNumber":1,"nVarValue":986.5}]}],"sCompiler":"AB","dateDateAdded":"9/24/2015","nPureOrMixtureDataNumber":3}],"THERMOML_MD5_CHECKSUM":"2fdc38e1d9bff0b2a96d229174abd058","Compound":[{"sStandardInChIKey":"DSAJWYNOEDNPEQ-UHFFFAOYSA-N","RegNum":{"nOrgNum":1,"tml_elements":["nOrgNum"]},"sStandardInChI":"InChI=1S/Ba","sFormulaMolec":"Ba","tml_elements":["RegNum","sStandardInChI","sStandardInChIKey","sCommonName","sFormulaMolec"],"sCommonName":["barium","barium element"]},{"sStandardInChIKey":"APFVFJFRJDLVQX-UHFFFAOYSA-N","sStandardInChI":"InChI=1S/In","RegNum":{"tml_elements":["nOrgNum"],"nOrgNum":2},"sCommonName":["indium"],"tml_elements":["RegNum","sStandardInChI","sStandardInChIKey","sCommonName","sFormulaMolec"],"sFormulaMolec":"In"},{"RegNum":{"tml_elements":["nOrgNum"],"nOrgNum":3},"sStandardInChI":"InChI=1S/O2/c1-2","sStandardInChIKey":"MYMOFIZGZYHOMD-UHFFFAOYSA-N","sFormulaMolec":"O2","sCommonName":["oxygen"],"tml_elements":["RegNum","sStandardInChI","sStandardInChIKey","sCommonName","sFormulaMolec"]},{"sStandardInChI":"InChI=1S/2Ba.2In.5O/q2*+2;2*+3;5*-2","RegNum":{"tml_elements":["nOrgNum"],"nOrgNum":4},"sStandardInChIKey":"AOBPZHRIDZOKKT-UHFFFAOYSA-N","sFormulaMolec":"Ba2In2O5","sCommonName":["barium indium oxide (Ba2In2O5)","barium indate (Ba2In2O5)"],"Sample":[{"purity":[{"nStep":1,"tml_elements":["nStep","ePurifMethod"],"ePurifMethod":["Dried in a desiccator"]},{"nPurityMass":99.6,"eAnalMeth":["Spectroscopy"],"nStep":2,"tml_elements":["nStep","nPurityMass","nPurityMassDigits","eAnalMeth"],"nPurityMassDigits":3}],"tml_elements":["nSampleNm","eSource","purity"],"nSampleNm":1,"eSource":"Synthesized by the authors"}],"tml_elements":["RegNum","sStandardInChI","sStandardInChIKey","sCommonName","sFormulaMolec","Sample"]}],"Version":{"tml_elements":["nVersionMajor","nVersionMinor"],"nVersionMinor":0,"nVersionMajor":2},"Citation":{"sPubName":"J. Chem. Thermodyn.","yrPubYr":"2015","dateCit":"2020-09-29","sVol":"89","eType":"journal","sPage":"228-232","eSourceType":"Original","tml_elements":["TRCRefID","eType","eSourceType","sAuthor","sPubName","yrPubYr","dateCit","sTitle","sAbstract","sKeyword","sDOI","sVol","sPage"],"sAuthor":["Shirsat, A. N.","Phapale, S.","Mishra, R.","Bharadwaj, S. R."],"sKeyword":["Barium indate","Enthalpy increment","Heat capacity","Enthalpy of formation","Free energy of formation"],"TRCRefID":{"yrYrPub":"2015","tml_elements":["yrYrPub","sAuthor1","sAuthor2","nAuthorn"],"nAuthorn":"0","sAuthor1":"shi","sAuthor2":"pha"},"sAbstract":"Barium indate (Ba2In2O5) is an interesting compound with potential applications as oxide-ion conductor, oxygen sensor, separation membrane and electrochemical device material. Information on thermodynamic stability of barium indate is essential for long term use of this compound under reactive chemical environments. The present paper deals with the detailed thermodynamic investigations on barium indate, Ba2In2O5. Standard molar enthalpy of formation of Ba2In2O5(s) at T = 298 K (DfH0 298P has been determined employing an isoperibol solution calorimeter. The standard molar heat capacity (Cp0) of barium indate was derived from enthalpy increment data measured employing a high temperature calorimeter and the thermodynamic functions such as H0T - H0 298, Cp0 m, S0T, H0T , G0T - (G0T - H0 298)/T, DfH0T and Df G0T have been generated.","sDOI":"10.1016/j.jct.2015.04.035","sTitle":"Thermodynamic investigations on barium indate"}}