{"Version":{"tml_elements":["nVersionMajor","nVersionMinor"],"nVersionMinor":0,"nVersionMajor":2},"Citation":{"sPubName":"J. Chem. Thermodyn.","yrPubYr":"2017","dateCit":"2020-09-29","sVol":"112","eType":"journal","sPage":"293-298","eSourceType":"Original","tml_elements":["TRCRefID","eType","eSourceType","sAuthor","sPubName","yrPubYr","dateCit","sTitle","sAbstract","sKeyword","sDOI","sVol","sPage"],"sAuthor":["Tong, J.[Jing]","Liu, L.[Lu]","Li, H.[Hui]","Guan, W.[Wei]","Chen, X.[Xia]"],"sKeyword":["Ionic liquid","Isothermogravimetrical analysis","Enthalpy of vaporization","Threonine"],"TRCRefID":{"sAuthor1":"ton","sAuthor2":"liu","nAuthorn":"0","tml_elements":["yrYrPub","sAuthor1","sAuthor2","nAuthorn"],"yrYrPub":"2017"},"sAbstract":"The molar enthalpy of vaporization, Dgl Ho m(Tav), at the average temperature, Tav = 438.15 K, for the ionic liquids (ILs), 1-alkyl-3-methylimidazolium threonine salt [Cnmim][Thr](n = 2, 4) were determined by using the isothermogravimetrical analysis. With the use of Verevkin s method, the difference of heat capacities between the gaseous phase and the liquid phase, Dgl Cp o m, for [Cnmim][Thr](n = 2, 4) were calculated based on the statistical thermodynamics. Therefore, with the use of Dgl Cp o m, the values of Dgl Ho m(Tav) were transformed into Dgl Ho m(298). According to the new scale of polarity for ILs, the order of the polarity of [Cnmim][Thr](n = 2, 4) was predicted, that is, the polarity reduces with the increasing of methylene. In addition, a new model about the enthalpy of vaporization for aprotic ILs was proposed and used to predict the vaporization enthalpy for [Cnmim][Thr](n = 3, 5, 6), but these predicted values also need to be verified in our future experiments.","sDOI":"10.1016/j.jct.2017.05.015","sTitle":"Measurement and estimation of the vaporization enthalpy for amino acid ionic liquids [Cnmim][Thr](n = 2, 4)"},"Compound":[{"sStandardInChIKey":"MWRHCIMYGVNLMY-RCROYASPSA-M","RegNum":{"tml_elements":["nOrgNum"],"nOrgNum":1},"sStandardInChI":"InChI=1S/C6H11N2.C4H9NO3/c1-3-8-5-4-7(2)6-8;1-2(6)3(5)4(7)8/h4-6H,3H2,1-2H3;2-3,6H,5H2,1H3,(H,7,8)/q+1;/p-1/t;2-,3+/m.1/s1","sCommonName":["3-ethyl-1-methyl-1H-imidazolium DL-threoninate","1-ethyl-3-methylimidazolium DL-threoninate"],"tml_elements":["RegNum","sStandardInChI","sStandardInChIKey","sCommonName","sFormulaMolec","Sample"],"Sample":[{"nSampleNm":1,"eSource":"Synthesized by the authors","tml_elements":["nSampleNm","eSource","purity"],"purity":[{"nPurityMassDigits":2,"tml_elements":["nStep","nPurityMass","nPurityMassDigits","eAnalMeth"],"nStep":1,"nPurityMass":99,"eAnalMeth":["Chemical analysis"]},{"ePurifMethod":["None used"],"tml_elements":["nStep","ePurifMethod"],"nStep":2},{"nStep":3,"tml_elements":["nStep","nWaterMassPerCent","nWaterMassPerCentDigits","eAnalMeth"],"eAnalMeth":["Karl Fischer titration"],"nWaterMassPerCentDigits":3,"nWaterMassPerCent":0.62}]}],"sFormulaMolec":"C10H19N3O3"},{"sStandardInChI":"InChI=1S/C8H15N2.C4H9NO3/c1-3-4-5-10-7-6-9(2)8-10;1-2(6)3(5)4(7)8/h6-8H,3-5H2,1-2H3;2-3,6H,5H2,1H3,(H,7,8)/q+1;/p-1/t;2-,3+/m.1/s1","RegNum":{"nOrgNum":2,"tml_elements":["nOrgNum"]},"sStandardInChIKey":"GQXKFOZATIOMBA-RCROYASPSA-M","sCommonName":["3-butyl-1-methyl-1H-imidazolium DL-threoninate","1-butyl-3-methylimidazolium DL-threoninate"],"Sample":[{"tml_elements":["nSampleNm","eSource","purity"],"purity":[{"eAnalMeth":["Chemical analysis"],"nPurityMass":99,"nPurityMassDigits":2,"tml_elements":["nStep","nPurityMass","nPurityMassDigits","eAnalMeth"],"nStep":1},{"tml_elements":["nStep","ePurifMethod"],"nStep":2,"ePurifMethod":["None used"]},{"nStep":3,"tml_elements":["nStep","nWaterMassPerCent","nWaterMassPerCentDigits","eAnalMeth"],"nWaterMassPerCentDigits":3,"eAnalMeth":["Karl Fischer titration"],"nWaterMassPerCent":0.64}],"nSampleNm":1,"eSource":"Synthesized by the authors"}],"tml_elements":["RegNum","sStandardInChI","sStandardInChIKey","sCommonName","sFormulaMolec","Sample"],"sFormulaMolec":"C12H23N3O3"}],"THERMOML_MD5_CHECKSUM":"c50c827ab98282beb298351e361b3eae","PureOrMixtureData":[{"Property":[{"CombinedUncertainty":{"nCombUncertAssessNum":1,"sCombUncertEvaluator":"Data file compiler","tml_elements":["nCombUncertAssessNum","sCombUncertEvaluator","eCombUncertEvalMethod","nCombUncertLevOfConfid"],"nCombUncertLevOfConfid":95,"eCombUncertEvalMethod":"Propagation of evaluated standard uncertainties"},"ePresentation":"Direct value, X","tml_elements":["nPropNumber","Property-MethodID","PropPhaseID","ePresentation","CombinedUncertainty"],"Property-MethodID":{"tml_elements":["PropertyGroup"],"PropertyGroup":{"PhaseTransition":{"tml_elements":["ePropName","eMethodName"],"ePropName":"Molar enthalpy of vaporization or sublimation, kJ/mol","eMethodName":"Derived by Second law"},"tml_elements":["PhaseTransition"]}},"PropPhaseID":{"ePropPhase":"Liquid","tml_elements":["ePropPhase"]},"nPropNumber":1}],"eExpPurpose":"Principal objective of the work","nPureOrMixtureDataNumber":1,"dateDateAdded":"3/21/2018","sCompiler":"AB","NumValues":[{"tml_elements":["VariableValue","PropertyValue"],"PropertyValue":[{"CombinedUncertainty":{"nCombUncertAssessNum":1,"nCombExpandUncertValue":10.7,"tml_elements":["nCombUncertAssessNum","nCombExpandUncertValue"]},"nPropValue":112.3,"tml_elements":["nPropNumber","nPropValue","nPropDigits","CombinedUncertainty"],"nPropNumber":1,"nPropDigits":4}],"VariableValue":[{"nVarValue":438.15,"nVarNumber":1,"tml_elements":["nVarNumber","nVarValue","nVarDigits"],"nVarDigits":5}]}],"tml_elements":["nPureOrMixtureDataNumber","Component","eExpPurpose","sCompiler","sContributor","dateDateAdded","Property","PhaseID","Variable","NumValues"],"PhaseID":[{"tml_elements":["ePhase"],"ePhase":"Liquid"},{"tml_elements":["ePhase"],"ePhase":"Gas"}],"Component":[{"RegNum":{"nOrgNum":1,"tml_elements":["nOrgNum"]},"nSampleNm":1,"tml_elements":["RegNum","nSampleNm"]}],"sContributor":"TRC","Variable":[{"VariableID":{"tml_elements":["VariableType"],"VariableType":{"eTemperature":"Temperature, K","tml_elements":["eTemperature"]}},"nVarNumber":1,"VarPhaseID":{"tml_elements":["eVarPhase"],"eVarPhase":"Liquid"},"tml_elements":["nVarNumber","VariableID","VarPhaseID"]}]},{"Variable":[{"VariableID":{"tml_elements":["VariableType"],"VariableType":{"eTemperature":"Temperature, K","tml_elements":["eTemperature"]}},"VarPhaseID":{"eVarPhase":"Liquid","tml_elements":["eVarPhase"]},"nVarNumber":1,"tml_elements":["nVarNumber","VariableID","VarPhaseID"]}],"sContributor":"TRC","Component":[{"RegNum":{"tml_elements":["nOrgNum"],"nOrgNum":2},"nSampleNm":1,"tml_elements":["RegNum","nSampleNm"]}],"PhaseID":[{"tml_elements":["ePhase"],"ePhase":"Liquid"},{"ePhase":"Gas","tml_elements":["ePhase"]}],"tml_elements":["nPureOrMixtureDataNumber","Component","eExpPurpose","sCompiler","sContributor","dateDateAdded","Property","PhaseID","Variable","NumValues"],"NumValues":[{"PropertyValue":[{"nPropValue":120.2,"CombinedUncertainty":{"tml_elements":["nCombUncertAssessNum","nCombExpandUncertValue"],"nCombExpandUncertValue":4.5,"nCombUncertAssessNum":1},"nPropDigits":4,"nPropNumber":1,"tml_elements":["nPropNumber","nPropValue","nPropDigits","CombinedUncertainty"]}],"tml_elements":["VariableValue","PropertyValue"],"VariableValue":[{"nVarNumber":1,"nVarDigits":5,"tml_elements":["nVarNumber","nVarValue","nVarDigits"],"nVarValue":438.15}]}],"sCompiler":"AB","nPureOrMixtureDataNumber":2,"dateDateAdded":"3/21/2018","eExpPurpose":"Principal objective of the work","Property":[{"tml_elements":["nPropNumber","Property-MethodID","PropPhaseID","ePresentation","CombinedUncertainty"],"ePresentation":"Direct value, X","nPropNumber":1,"PropPhaseID":{"ePropPhase":"Liquid","tml_elements":["ePropPhase"]},"CombinedUncertainty":{"sCombUncertEvaluator":"Data file compiler","nCombUncertAssessNum":1,"nCombUncertLevOfConfid":95,"eCombUncertEvalMethod":"Propagation of evaluated standard uncertainties","tml_elements":["nCombUncertAssessNum","sCombUncertEvaluator","eCombUncertEvalMethod","nCombUncertLevOfConfid"]},"Property-MethodID":{"tml_elements":["PropertyGroup"],"PropertyGroup":{"PhaseTransition":{"tml_elements":["ePropName","eMethodName"],"eMethodName":"Derived by Second law","ePropName":"Molar enthalpy of vaporization or sublimation, kJ/mol"},"tml_elements":["PhaseTransition"]}}}]}],"tml_elements":["Version","Citation","Compound","PureOrMixtureData"]}