{"THERMOML_MD5_CHECKSUM":"0916f55bc16e271e6cf7dea94213e594","Citation":{"eSourceType":"Original","sKeyword":["NH4NO3","Vapor pressure","Torsion + effusion method","Mass spectrometry","Air bags"],"sAuthor":["Chien, W.-M.[Wen-Ming]","Chandra, D.[Danesh]","Lau, K. H.","Hildenbrand, D. L.","Helmy, A. M."],"tml_elements":["TRCRefID","eType","eSourceType","sAuthor","sPubName","yrPubYr","dateCit","sTitle","sAbstract","sKeyword","sDOI","sIDNum","sVol","sPage"],"sTitle":"The vaporization of NH4NO3","sDOI":"10.1016/j.jct.2010.01.012","TRCRefID":{"sAuthor1":"chi","sAuthor2":"cha","tml_elements":["yrYrPub","sAuthor1","sAuthor2","nAuthorn"],"nAuthorn":"0","yrYrPub":"2010"},"sAbstract":"The total vapor pressure and vapor molecular weight of ammonium nitrate (NH4NO3) were determined. The vapor pressure was determined by the torsion + effusion method, and vapor composition was determined by effusion-beam mass spectrometry. Total vapor pressures of NH4NO3 were measured by using two effusion cells with different orifice diameters over the pressure range of (10-6  to 10-3) kPa, between (313 and 360) K. The equilibrium vapor pressure equation was zero-extrapolated from measurements with different orifice Knudsen cells, P1 and P2 cells, and is given as: log P_T  (kPa) = (10.400 +- 0.0002) - (4783.16 +- 0.07)/T. The measured molecular weight of NH4NO3 is 48.7 g/mol for P1 cell and 50.7 g/mol for P2 cell, both of which are much less than the theoretical molecular weight of NH4NO3 (approximately 80.04 g/mol). This significant difference in molecular weight suggests that there is disproportionation of NH4NO3  sample. The mass spectroscopic results revealed that NH4NO3  decomposes to NH3 and HNO3; it was interesting to note that the expected N2, O2, and H2O gases were not evolved during vaporization. The partial pressures of the three gas phase species (NH4NO3, NH3, and HNO3) that were evolved during vaporization of NH4NO3  sample were determined as: P1 cell: PNH4NO3/PT = 0.1490, PNH3/PT = 0.2911, and PHNO3/PT = 0.5599, and P2 cell: PNH4NO3/PT = 0.2101, PNH3/PT = 0.2702, and PHNO3/PT = 0.5197. The standard Gibbs energy change (?Gdeg ) for NH4NO3  decomposition and sublimation reactions are obtained from the partial pressure results. Details of total and partial pressures of vaporization of NH4NO3 and disproportionation aspects of the evolved gases are presented.","dateCit":"2020-09-29","sIDNum":"7","sPubName":"J. Chem. Thermodyn.","yrPubYr":"2010","sVol":"42","eType":"journal","sPage":"846-851"},"Compound":[{"sStandardInChIKey":"DVARTQFDIMZBAA-UHFFFAOYSA-O","RegNum":{"tml_elements":["nOrgNum"],"nOrgNum":1},"sStandardInChI":"InChI=1S/NO3.H3N/c2-1(3)4;/h;1H3/q-1;/p+1","sCommonName":["ammonium nitrate","ammonium nitrate [AN]","nitric acid ammonium salt"],"Sample":[{"nSampleNm":1,"eSource":"Commercial source","purity":[{"eAnalMeth":["Estimated by the compiler"],"nStep":1,"nPurityMolDigits":2,"nPurityMol":99,"tml_elements":["nStep","nPurityMol","nPurityMolDigits","eAnalMeth"]}],"tml_elements":["nSampleNm","eSource","purity"]}],"tml_elements":["RegNum","sStandardInChI","sStandardInChIKey","sCommonName","sFormulaMolec","Sample"],"sFormulaMolec":"H4N2O3"}],"tml_elements":["Version","Citation","Compound","PureOrMixtureData"],"PureOrMixtureData":[{"PhaseID":[{"ePhase":"Crystal 3","tml_elements":["ePhase"]},{"tml_elements":["ePhase"],"ePhase":"Gas"}],"tml_elements":["nPureOrMixtureDataNumber","Component","eExpPurpose","sCompiler","sContributor","dateDateAdded","Property","PhaseID","Variable","NumValues"],"Component":[{"RegNum":{"tml_elements":["nOrgNum"],"nOrgNum":1},"nSampleNm":1,"tml_elements":["RegNum","nSampleNm"]}],"Variable":[{"tml_elements":["nVarNumber","VariableID","VarPhaseID"],"VarPhaseID":{"eVarPhase":"Crystal 3","tml_elements":["eVarPhase"]},"nVarNumber":1,"VariableID":{"VariableType":{"eTemperature":"Temperature, K","tml_elements":["eTemperature"]},"tml_elements":["VariableType"]}}],"sContributor":"TRC","eExpPurpose":"Principal objective of the work","Property":[{"ePresentation":"Direct value, X","tml_elements":["nPropNumber","Property-MethodID","PropPhaseID","ePresentation","CombinedUncertainty"],"PropPhaseID":{"tml_elements":["ePropPhase"],"ePropPhase":"Crystal 3"},"Property-MethodID":{"tml_elements":["PropertyGroup"],"PropertyGroup":{"tml_elements":["VaporPBoilingTAzeotropTandP"],"VaporPBoilingTAzeotropTandP":{"ePropName":"Vapor or sublimation pressure, kPa","sMethodName":"Calculated from knudsen effusion weight loss","tml_elements":["ePropName","sMethodName"]}}},"nPropNumber":1,"CombinedUncertainty":{"sCombUncertEvaluator":"Data file compiler","nCombUncertAssessNum":1,"eCombUncertEvalMethod":"Propagation of evaluated standard uncertainties","nCombUncertLevOfConfid":95,"tml_elements":["nCombUncertAssessNum","sCombUncertEvaluator","eCombUncertEvalMethod","nCombUncertLevOfConfid"]}}],"sCompiler":"RDC","dateDateAdded":"7/26/2010","nPureOrMixtureDataNumber":1,"NumValues":[{"PropertyValue":[{"CombinedUncertainty":{"tml_elements":["nCombUncertAssessNum","nCombExpandUncertValue"],"nCombExpandUncertValue":4.209e-07,"nCombUncertAssessNum":1},"nPropValue":8.073e-06,"nPropDigits":5,"nPropNumber":1,"tml_elements":["nPropNumber","nPropValue","nPropDigits","CombinedUncertainty"]}],"tml_elements":["VariableValue","PropertyValue"],"VariableValue":[{"nVarValue":313.2,"tml_elements":["nVarNumber","nVarValue","nVarDigits"],"nVarDigits":4,"nVarNumber":1}]},{"tml_elements":["VariableValue","PropertyValue"],"PropertyValue":[{"nPropValue":1.121e-05,"CombinedUncertainty":{"nCombUncertAssessNum":1,"tml_elements":["nCombUncertAssessNum","nCombExpandUncertValue"],"nCombExpandUncertValue":5.11e-07},"tml_elements":["nPropNumber","nPropValue","nPropDigits","CombinedUncertainty"],"nPropNumber":1,"nPropDigits":5}],"VariableValue":[{"nVarValue":315.5,"nVarNumber":1,"tml_elements":["nVarNumber","nVarValue","nVarDigits"],"nVarDigits":4}]},{"PropertyValue":[{"tml_elements":["nPropNumber","nPropValue","nPropDigits","CombinedUncertainty"],"nPropDigits":5,"nPropNumber":1,"nPropValue":1.785e-05,"CombinedUncertainty":{"nCombUncertAssessNum":1,"tml_elements":["nCombUncertAssessNum","nCombExpandUncertValue"],"nCombExpandUncertValue":9.48e-07}}],"tml_elements":["VariableValue","PropertyValue"],"VariableValue":[{"nVarDigits":4,"tml_elements":["nVarNumber","nVarValue","nVarDigits"],"nVarNumber":1,"nVarValue":320.8}]},{"VariableValue":[{"nVarNumber":1,"tml_elements":["nVarNumber","nVarValue","nVarDigits"],"nVarDigits":4,"nVarValue":321.8}],"tml_elements":["VariableValue","PropertyValue"],"PropertyValue":[{"nPropValue":2.105e-05,"CombinedUncertainty":{"nCombUncertAssessNum":1,"nCombExpandUncertValue":1.002e-06,"tml_elements":["nCombUncertAssessNum","nCombExpandUncertValue"]},"nPropNumber":1,"nPropDigits":5,"tml_elements":["nPropNumber","nPropValue","nPropDigits","CombinedUncertainty"]}]},{"PropertyValue":[{"tml_elements":["nPropNumber","nPropValue","nPropDigits","CombinedUncertainty"],"nPropDigits":5,"nPropNumber":1,"nPropValue":2.141e-05,"CombinedUncertainty":{"nCombExpandUncertValue":8.71e-07,"tml_elements":["nCombUncertAssessNum","nCombExpandUncertValue"],"nCombUncertAssessNum":1}}],"tml_elements":["VariableValue","PropertyValue"],"VariableValue":[{"nVarNumber":1,"nVarDigits":4,"tml_elements":["nVarNumber","nVarValue","nVarDigits"],"nVarValue":322.1}]},{"VariableValue":[{"tml_elements":["nVarNumber","nVarValue","nVarDigits"],"nVarDigits":4,"nVarNumber":1,"nVarValue":327.5}],"tml_elements":["VariableValue","PropertyValue"],"PropertyValue":[{"tml_elements":["nPropNumber","nPropValue","nPropDigits","CombinedUncertainty"],"nPropDigits":5,"nPropNumber":1,"nPropValue":3.817e-05,"CombinedUncertainty":{"tml_elements":["nCombUncertAssessNum","nCombExpandUncertValue"],"nCombExpandUncertValue":1.687e-06,"nCombUncertAssessNum":1}}]},{"PropertyValue":[{"nPropValue":5.621e-05,"CombinedUncertainty":{"nCombExpandUncertValue":2.404e-06,"tml_elements":["nCombUncertAssessNum","nCombExpandUncertValue"],"nCombUncertAssessNum":1},"tml_elements":["nPropNumber","nPropValue","nPropDigits","CombinedUncertainty"],"nPropDigits":5,"nPropNumber":1}],"tml_elements":["VariableValue","PropertyValue"],"VariableValue":[{"nVarNumber":1,"tml_elements":["nVarNumber","nVarValue","nVarDigits"],"nVarDigits":4,"nVarValue":330.6}]},{"VariableValue":[{"nVarNumber":1,"tml_elements":["nVarNumber","nVarValue","nVarDigits"],"nVarDigits":4,"nVarValue":332.1}],"PropertyValue":[{"nPropValue":6.054e-05,"CombinedUncertainty":{"tml_elements":["nCombUncertAssessNum","nCombExpandUncertValue"],"nCombExpandUncertValue":2.719e-06,"nCombUncertAssessNum":1},"nPropDigits":5,"nPropNumber":1,"tml_elements":["nPropNumber","nPropValue","nPropDigits","CombinedUncertainty"]}],"tml_elements":["VariableValue","PropertyValue"]},{"VariableValue":[{"nVarValue":333.9,"nVarNumber":1,"nVarDigits":4,"tml_elements":["nVarNumber","nVarValue","nVarDigits"]}],"PropertyValue":[{"nPropValue":7.835e-05,"CombinedUncertainty":{"nCombExpandUncertValue":3.044e-06,"tml_elements":["nCombUncertAssessNum","nCombExpandUncertValue"],"nCombUncertAssessNum":1},"nPropNumber":1,"nPropDigits":5,"tml_elements":["nPropNumber","nPropValue","nPropDigits","CombinedUncertainty"]}],"tml_elements":["VariableValue","PropertyValue"]},{"tml_elements":["VariableValue","PropertyValue"],"PropertyValue":[{"nPropDigits":5,"nPropNumber":1,"tml_elements":["nPropNumber","nPropValue","nPropDigits","CombinedUncertainty"],"CombinedUncertainty":{"tml_elements":["nCombUncertAssessNum","nCombExpandUncertValue"],"nCombExpandUncertValue":3.039e-06,"nCombUncertAssessNum":1},"nPropValue":7.822e-05}],"VariableValue":[{"nVarValue":334.2,"tml_elements":["nVarNumber","nVarValue","nVarDigits"],"nVarDigits":4,"nVarNumber":1}]},{"tml_elements":["VariableValue","PropertyValue"],"PropertyValue":[{"nPropNumber":1,"nPropDigits":5,"tml_elements":["nPropNumber","nPropValue","nPropDigits","CombinedUncertainty"],"CombinedUncertainty":{"nCombExpandUncertValue":4.5e-06,"tml_elements":["nCombUncertAssessNum","nCombExpandUncertValue"],"nCombUncertAssessNum":1},"nPropValue":0.0001049}],"VariableValue":[{"nVarNumber":1,"tml_elements":["nVarNumber","nVarValue","nVarDigits"],"nVarDigits":4,"nVarValue":335.8}]},{"VariableValue":[{"nVarValue":340.2,"nVarDigits":4,"tml_elements":["nVarNumber","nVarValue","nVarDigits"],"nVarNumber":1}],"tml_elements":["VariableValue","PropertyValue"],"PropertyValue":[{"nPropNumber":1,"nPropDigits":5,"tml_elements":["nPropNumber","nPropValue","nPropDigits","CombinedUncertainty"],"nPropValue":0.0001387,"CombinedUncertainty":{"tml_elements":["nCombUncertAssessNum","nCombExpandUncertValue"],"nCombExpandUncertValue":5.69e-06,"nCombUncertAssessNum":1}}]},{"VariableValue":[{"nVarValue":341.4,"nVarNumber":1,"nVarDigits":4,"tml_elements":["nVarNumber","nVarValue","nVarDigits"]}],"PropertyValue":[{"nPropDigits":5,"nPropNumber":1,"tml_elements":["nPropNumber","nPropValue","nPropDigits","CombinedUncertainty"],"CombinedUncertainty":{"nCombUncertAssessNum":1,"tml_elements":["nCombUncertAssessNum","nCombExpandUncertValue"],"nCombExpandUncertValue":7.04e-06},"nPropValue":0.0001596}],"tml_elements":["VariableValue","PropertyValue"]},{"VariableValue":[{"nVarValue":342.6,"tml_elements":["nVarNumber","nVarValue","nVarDigits"],"nVarDigits":4,"nVarNumber":1}],"tml_elements":["VariableValue","PropertyValue"],"PropertyValue":[{"nPropValue":0.0001788,"CombinedUncertainty":{"tml_elements":["nCombUncertAssessNum","nCombExpandUncertValue"],"nCombExpandUncertValue":7.85e-06,"nCombUncertAssessNum":1},"nPropDigits":5,"nPropNumber":1,"tml_elements":["nPropNumber","nPropValue","nPropDigits","CombinedUncertainty"]}]},{"VariableValue":[{"nVarValue":344.6,"nVarDigits":4,"tml_elements":["nVarNumber","nVarValue","nVarDigits"],"nVarNumber":1}],"tml_elements":["VariableValue","PropertyValue"],"PropertyValue":[{"tml_elements":["nPropNumber","nPropValue","nPropDigits","CombinedUncertainty"],"nPropNumber":1,"nPropDigits":5,"CombinedUncertainty":{"nCombUncertAssessNum":1,"nCombExpandUncertValue":9.32e-06,"tml_elements":["nCombUncertAssessNum","nCombExpandUncertValue"]},"nPropValue":0.0002179}]},{"VariableValue":[{"nVarValue":344.8,"nVarDigits":4,"tml_elements":["nVarNumber","nVarValue","nVarDigits"],"nVarNumber":1}],"PropertyValue":[{"CombinedUncertainty":{"tml_elements":["nCombUncertAssessNum","nCombExpandUncertValue"],"nCombExpandUncertValue":9.91e-06,"nCombUncertAssessNum":1},"nPropValue":0.0002326,"nPropDigits":5,"nPropNumber":1,"tml_elements":["nPropNumber","nPropValue","nPropDigits","CombinedUncertainty"]}],"tml_elements":["VariableValue","PropertyValue"]},{"VariableValue":[{"nVarDigits":4,"tml_elements":["nVarNumber","nVarValue","nVarDigits"],"nVarNumber":1,"nVarValue":345.7}],"tml_elements":["VariableValue","PropertyValue"],"PropertyValue":[{"CombinedUncertainty":{"nCombUncertAssessNum":1,"tml_elements":["nCombUncertAssessNum","nCombExpandUncertValue"],"nCombExpandUncertValue":9.68e-06},"nPropValue":0.0002396,"tml_elements":["nPropNumber","nPropValue","nPropDigits","CombinedUncertainty"],"nPropDigits":5,"nPropNumber":1}]},{"VariableValue":[{"nVarValue":345.9,"nVarDigits":4,"tml_elements":["nVarNumber","nVarValue","nVarDigits"],"nVarNumber":1}],"tml_elements":["VariableValue","PropertyValue"],"PropertyValue":[{"nPropValue":0.0002618,"CombinedUncertainty":{"nCombExpandUncertValue":1.06e-05,"tml_elements":["nCombUncertAssessNum","nCombExpandUncertValue"],"nCombUncertAssessNum":1},"nPropNumber":1,"nPropDigits":5,"tml_elements":["nPropNumber","nPropValue","nPropDigits","CombinedUncertainty"]}]},{"VariableValue":[{"tml_elements":["nVarNumber","nVarValue","nVarDigits"],"nVarDigits":4,"nVarNumber":1,"nVarValue":346.5}],"tml_elements":["VariableValue","PropertyValue"],"PropertyValue":[{"nPropValue":0.0002559,"CombinedUncertainty":{"nCombUncertAssessNum":1,"nCombExpandUncertValue":9.94e-06,"tml_elements":["nCombUncertAssessNum","nCombExpandUncertValue"]},"tml_elements":["nPropNumber","nPropValue","nPropDigits","CombinedUncertainty"],"nPropDigits":5,"nPropNumber":1}]},{"VariableValue":[{"nVarNumber":1,"tml_elements":["nVarNumber","nVarValue","nVarDigits"],"nVarDigits":4,"nVarValue":346.5}],"PropertyValue":[{"nPropValue":0.0002574,"CombinedUncertainty":{"nCombExpandUncertValue":1e-05,"tml_elements":["nCombUncertAssessNum","nCombExpandUncertValue"],"nCombUncertAssessNum":1},"tml_elements":["nPropNumber","nPropValue","nPropDigits","CombinedUncertainty"],"nPropDigits":5,"nPropNumber":1}],"tml_elements":["VariableValue","PropertyValue"]},{"tml_elements":["VariableValue","PropertyValue"],"PropertyValue":[{"nPropValue":0.0002658,"CombinedUncertainty":{"tml_elements":["nCombUncertAssessNum","nCombExpandUncertValue"],"nCombExpandUncertValue":1.082e-05,"nCombUncertAssessNum":1},"nPropNumber":1,"nPropDigits":5,"tml_elements":["nPropNumber","nPropValue","nPropDigits","CombinedUncertainty"]}],"VariableValue":[{"tml_elements":["nVarNumber","nVarValue","nVarDigits"],"nVarDigits":4,"nVarNumber":1,"nVarValue":347.1}]}]},{"Property":[{"Property-MethodID":{"tml_elements":["PropertyGroup"],"PropertyGroup":{"tml_elements":["VaporPBoilingTAzeotropTandP"],"VaporPBoilingTAzeotropTandP":{"tml_elements":["ePropName","sMethodName"],"ePropName":"Vapor or sublimation pressure, kPa","sMethodName":"Calculated from knudsen effusion weight loss"}}},"CombinedUncertainty":{"sCombUncertEvaluator":"Data file compiler","nCombUncertAssessNum":1,"eCombUncertEvalMethod":"Propagation of evaluated standard uncertainties","nCombUncertLevOfConfid":95,"tml_elements":["nCombUncertAssessNum","sCombUncertEvaluator","eCombUncertEvalMethod","nCombUncertLevOfConfid"]},"tml_elements":["nPropNumber","Property-MethodID","PropPhaseID","ePresentation","CombinedUncertainty"],"ePresentation":"Direct value, X","nPropNumber":1,"PropPhaseID":{"ePropPhase":"Crystal 3","tml_elements":["ePropPhase"]}}],"eExpPurpose":"Principal objective of the work","NumValues":[{"PropertyValue":[{"CombinedUncertainty":{"nCombUncertAssessNum":1,"nCombExpandUncertValue":1.09e-06,"tml_elements":["nCombUncertAssessNum","nCombExpandUncertValue"]},"nPropValue":2.356e-05,"nPropDigits":4,"nPropNumber":1,"tml_elements":["nPropNumber","nPropValue","nPropDigits","CombinedUncertainty"]}],"tml_elements":["VariableValue","PropertyValue"],"VariableValue":[{"nVarValue":321,"nVarNumber":1,"nVarDigits":4,"tml_elements":["nVarNumber","nVarValue","nVarDigits"]}]},{"tml_elements":["VariableValue","PropertyValue"],"PropertyValue":[{"nPropValue":3.179e-05,"CombinedUncertainty":{"tml_elements":["nCombUncertAssessNum","nCombExpandUncertValue"],"nCombExpandUncertValue":1.4e-06,"nCombUncertAssessNum":1},"tml_elements":["nPropNumber","nPropValue","nPropDigits","CombinedUncertainty"],"nPropDigits":4,"nPropNumber":1}],"VariableValue":[{"nVarValue":323.8,"nVarDigits":4,"tml_elements":["nVarNumber","nVarValue","nVarDigits"],"nVarNumber":1}]},{"PropertyValue":[{"nPropValue":3.69e-05,"CombinedUncertainty":{"nCombUncertAssessNum":1,"nCombExpandUncertValue":1.7e-06,"tml_elements":["nCombUncertAssessNum","nCombExpandUncertValue"]},"tml_elements":["nPropNumber","nPropValue","nPropDigits","CombinedUncertainty"],"nPropDigits":3,"nPropNumber":1}],"tml_elements":["VariableValue","PropertyValue"],"VariableValue":[{"nVarNumber":1,"nVarDigits":4,"tml_elements":["nVarNumber","nVarValue","nVarDigits"],"nVarValue":325}]},{"VariableValue":[{"nVarValue":328.1,"nVarNumber":1,"tml_elements":["nVarNumber","nVarValue","nVarDigits"],"nVarDigits":4}],"tml_elements":["VariableValue","PropertyValue"],"PropertyValue":[{"CombinedUncertainty":{"tml_elements":["nCombUncertAssessNum","nCombExpandUncertValue"],"nCombExpandUncertValue":2.17e-06,"nCombUncertAssessNum":1},"nPropValue":5.023e-05,"nPropNumber":1,"nPropDigits":4,"tml_elements":["nPropNumber","nPropValue","nPropDigits","CombinedUncertainty"]}]},{"PropertyValue":[{"tml_elements":["nPropNumber","nPropValue","nPropDigits","CombinedUncertainty"],"nPropDigits":3,"nPropNumber":1,"nPropValue":5.62e-05,"CombinedUncertainty":{"nCombUncertAssessNum":1,"tml_elements":["nCombUncertAssessNum","nCombExpandUncertValue"],"nCombExpandUncertValue":2.6e-06}}],"tml_elements":["VariableValue","PropertyValue"],"VariableValue":[{"tml_elements":["nVarNumber","nVarValue","nVarDigits"],"nVarDigits":4,"nVarNumber":1,"nVarValue":328.9}]},{"PropertyValue":[{"CombinedUncertainty":{"nCombExpandUncertValue":3.49e-06,"tml_elements":["nCombUncertAssessNum","nCombExpandUncertValue"],"nCombUncertAssessNum":1},"nPropValue":8.512e-05,"tml_elements":["nPropNumber","nPropValue","nPropDigits","CombinedUncertainty"],"nPropNumber":1,"nPropDigits":4}],"tml_elements":["VariableValue","PropertyValue"],"VariableValue":[{"nVarNumber":1,"nVarDigits":4,"tml_elements":["nVarNumber","nVarValue","nVarDigits"],"nVarValue":332.8}]},{"PropertyValue":[{"tml_elements":["nPropNumber","nPropValue","nPropDigits","CombinedUncertainty"],"nPropNumber":1,"nPropDigits":3,"nPropValue":8.85e-05,"CombinedUncertainty":{"tml_elements":["nCombUncertAssessNum","nCombExpandUncertValue"],"nCombExpandUncertValue":3.9e-06,"nCombUncertAssessNum":1}}],"tml_elements":["VariableValue","PropertyValue"],"VariableValue":[{"nVarNumber":1,"tml_elements":["nVarNumber","nVarValue","nVarDigits"],"nVarDigits":4,"nVarValue":333.4}]},{"VariableValue":[{"nVarValue":334.6,"tml_elements":["nVarNumber","nVarValue","nVarDigits"],"nVarDigits":4,"nVarNumber":1}],"tml_elements":["VariableValue","PropertyValue"],"PropertyValue":[{"CombinedUncertainty":{"nCombUncertAssessNum":1,"nCombExpandUncertValue":4.6e-06,"tml_elements":["nCombUncertAssessNum","nCombExpandUncertValue"]},"nPropValue":0.0001015,"nPropDigits":4,"nPropNumber":1,"tml_elements":["nPropNumber","nPropValue","nPropDigits","CombinedUncertainty"]}]},{"VariableValue":[{"nVarNumber":1,"nVarDigits":4,"tml_elements":["nVarNumber","nVarValue","nVarDigits"],"nVarValue":337.6}],"tml_elements":["VariableValue","PropertyValue"],"PropertyValue":[{"tml_elements":["nPropNumber","nPropValue","nPropDigits","CombinedUncertainty"],"nPropDigits":4,"nPropNumber":1,"nPropValue":0.0001374,"CombinedUncertainty":{"nCombUncertAssessNum":1,"tml_elements":["nCombUncertAssessNum","nCombExpandUncertValue"],"nCombExpandUncertValue":5.8e-06}}]},{"VariableValue":[{"tml_elements":["nVarNumber","nVarValue","nVarDigits"],"nVarDigits":4,"nVarNumber":1,"nVarValue":338.5}],"PropertyValue":[{"nPropValue":0.000145,"CombinedUncertainty":{"tml_elements":["nCombUncertAssessNum","nCombExpandUncertValue"],"nCombExpandUncertValue":7e-06,"nCombUncertAssessNum":1},"nPropNumber":1,"nPropDigits":3,"tml_elements":["nPropNumber","nPropValue","nPropDigits","CombinedUncertainty"]}],"tml_elements":["VariableValue","PropertyValue"]},{"VariableValue":[{"nVarNumber":1,"tml_elements":["nVarNumber","nVarValue","nVarDigits"],"nVarDigits":4,"nVarValue":340.1}],"PropertyValue":[{"CombinedUncertainty":{"tml_elements":["nCombUncertAssessNum","nCombExpandUncertValue"],"nCombExpandUncertValue":6.9e-06,"nCombUncertAssessNum":1},"nPropValue":0.0001783,"nPropDigits":4,"nPropNumber":1,"tml_elements":["nPropNumber","nPropValue","nPropDigits","CombinedUncertainty"]}],"tml_elements":["VariableValue","PropertyValue"]},{"VariableValue":[{"nVarNumber":1,"nVarDigits":4,"tml_elements":["nVarNumber","nVarValue","nVarDigits"],"nVarValue":340.5}],"tml_elements":["VariableValue","PropertyValue"],"PropertyValue":[{"tml_elements":["nPropNumber","nPropValue","nPropDigits","CombinedUncertainty"],"nPropNumber":1,"nPropDigits":4,"CombinedUncertainty":{"nCombExpandUncertValue":6.9e-06,"tml_elements":["nCombUncertAssessNum","nCombExpandUncertValue"],"nCombUncertAssessNum":1},"nPropValue":0.0001772}]},{"PropertyValue":[{"nPropNumber":1,"nPropDigits":4,"tml_elements":["nPropNumber","nPropValue","nPropDigits","CombinedUncertainty"],"nPropValue":0.0002105,"CombinedUncertainty":{"nCombUncertAssessNum":1,"tml_elements":["nCombUncertAssessNum","nCombExpandUncertValue"],"nCombExpandUncertValue":9.4e-06}}],"tml_elements":["VariableValue","PropertyValue"],"VariableValue":[{"tml_elements":["nVarNumber","nVarValue","nVarDigits"],"nVarDigits":4,"nVarNumber":1,"nVarValue":342.1}]},{"VariableValue":[{"nVarDigits":4,"tml_elements":["nVarNumber","nVarValue","nVarDigits"],"nVarNumber":1,"nVarValue":344.8}],"PropertyValue":[{"tml_elements":["nPropNumber","nPropValue","nPropDigits","CombinedUncertainty"],"nPropDigits":4,"nPropNumber":1,"nPropValue":0.0002759,"CombinedUncertainty":{"tml_elements":["nCombUncertAssessNum","nCombExpandUncertValue"],"nCombExpandUncertValue":1.18e-05,"nCombUncertAssessNum":1}}],"tml_elements":["VariableValue","PropertyValue"]},{"tml_elements":["VariableValue","PropertyValue"],"PropertyValue":[{"CombinedUncertainty":{"tml_elements":["nCombUncertAssessNum","nCombExpandUncertValue"],"nCombExpandUncertValue":1.32e-05,"nCombUncertAssessNum":1},"nPropValue":0.0003076,"tml_elements":["nPropNumber","nPropValue","nPropDigits","CombinedUncertainty"],"nPropNumber":1,"nPropDigits":4}],"VariableValue":[{"nVarDigits":4,"tml_elements":["nVarNumber","nVarValue","nVarDigits"],"nVarNumber":1,"nVarValue":345.9}]},{"VariableValue":[{"nVarDigits":4,"tml_elements":["nVarNumber","nVarValue","nVarDigits"],"nVarNumber":1,"nVarValue":346.5}],"tml_elements":["VariableValue","PropertyValue"],"PropertyValue":[{"nPropNumber":1,"nPropDigits":4,"tml_elements":["nPropNumber","nPropValue","nPropDigits","CombinedUncertainty"],"nPropValue":0.0003244,"CombinedUncertainty":{"nCombUncertAssessNum":1,"nCombExpandUncertValue":1.4e-05,"tml_elements":["nCombUncertAssessNum","nCombExpandUncertValue"]}}]},{"VariableValue":[{"nVarNumber":1,"tml_elements":["nVarNumber","nVarValue","nVarDigits"],"nVarDigits":4,"nVarValue":348.1}],"PropertyValue":[{"CombinedUncertainty":{"nCombUncertAssessNum":1,"nCombExpandUncertValue":1.64e-05,"tml_elements":["nCombUncertAssessNum","nCombExpandUncertValue"]},"nPropValue":0.0003741,"tml_elements":["nPropNumber","nPropValue","nPropDigits","CombinedUncertainty"],"nPropNumber":1,"nPropDigits":4}],"tml_elements":["VariableValue","PropertyValue"]},{"tml_elements":["VariableValue","PropertyValue"],"PropertyValue":[{"CombinedUncertainty":{"nCombUncertAssessNum":1,"tml_elements":["nCombUncertAssessNum","nCombExpandUncertValue"],"nCombExpandUncertValue":2.21e-05},"nPropValue":0.0005201,"nPropDigits":4,"nPropNumber":1,"tml_elements":["nPropNumber","nPropValue","nPropDigits","CombinedUncertainty"]}],"VariableValue":[{"nVarDigits":4,"tml_elements":["nVarNumber","nVarValue","nVarDigits"],"nVarNumber":1,"nVarValue":351.7}]},{"VariableValue":[{"nVarNumber":1,"tml_elements":["nVarNumber","nVarValue","nVarDigits"],"nVarDigits":4,"nVarValue":353.8}],"PropertyValue":[{"nPropDigits":4,"nPropNumber":1,"tml_elements":["nPropNumber","nPropValue","nPropDigits","CombinedUncertainty"],"nPropValue":0.0006331,"CombinedUncertainty":{"nCombUncertAssessNum":1,"nCombExpandUncertValue":2.64e-05,"tml_elements":["nCombUncertAssessNum","nCombExpandUncertValue"]}}],"tml_elements":["VariableValue","PropertyValue"]},{"VariableValue":[{"nVarValue":354.8,"tml_elements":["nVarNumber","nVarValue","nVarDigits"],"nVarDigits":4,"nVarNumber":1}],"PropertyValue":[{"nPropValue":0.0006692,"CombinedUncertainty":{"nCombExpandUncertValue":2.84e-05,"tml_elements":["nCombUncertAssessNum","nCombExpandUncertValue"],"nCombUncertAssessNum":1},"nPropNumber":1,"nPropDigits":4,"tml_elements":["nPropNumber","nPropValue","nPropDigits","CombinedUncertainty"]}],"tml_elements":["VariableValue","PropertyValue"]},{"PropertyValue":[{"nPropValue":0.0006992,"CombinedUncertainty":{"nCombUncertAssessNum":1,"tml_elements":["nCombUncertAssessNum","nCombExpandUncertValue"],"nCombExpandUncertValue":2.94e-05},"nPropDigits":4,"nPropNumber":1,"tml_elements":["nPropNumber","nPropValue","nPropDigits","CombinedUncertainty"]}],"tml_elements":["VariableValue","PropertyValue"],"VariableValue":[{"nVarValue":355,"nVarNumber":1,"nVarDigits":4,"tml_elements":["nVarNumber","nVarValue","nVarDigits"]}]},{"tml_elements":["VariableValue","PropertyValue"],"PropertyValue":[{"nPropValue":0.0008823,"CombinedUncertainty":{"nCombExpandUncertValue":3.44e-05,"tml_elements":["nCombUncertAssessNum","nCombExpandUncertValue"],"nCombUncertAssessNum":1},"nPropNumber":1,"nPropDigits":4,"tml_elements":["nPropNumber","nPropValue","nPropDigits","CombinedUncertainty"]}],"VariableValue":[{"nVarNumber":1,"nVarDigits":4,"tml_elements":["nVarNumber","nVarValue","nVarDigits"],"nVarValue":358.2}]},{"VariableValue":[{"nVarValue":358.4,"tml_elements":["nVarNumber","nVarValue","nVarDigits"],"nVarDigits":4,"nVarNumber":1}],"PropertyValue":[{"nPropDigits":4,"nPropNumber":1,"tml_elements":["nPropNumber","nPropValue","nPropDigits","CombinedUncertainty"],"CombinedUncertainty":{"nCombExpandUncertValue":3.66e-05,"tml_elements":["nCombUncertAssessNum","nCombExpandUncertValue"],"nCombUncertAssessNum":1},"nPropValue":0.0009171}],"tml_elements":["VariableValue","PropertyValue"]},{"VariableValue":[{"nVarValue":358.9,"nVarNumber":1,"tml_elements":["nVarNumber","nVarValue","nVarDigits"],"nVarDigits":4}],"PropertyValue":[{"nPropNumber":1,"nPropDigits":4,"tml_elements":["nPropNumber","nPropValue","nPropDigits","CombinedUncertainty"],"CombinedUncertainty":{"tml_elements":["nCombUncertAssessNum","nCombExpandUncertValue"],"nCombExpandUncertValue":3.88e-05,"nCombUncertAssessNum":1},"nPropValue":0.0008954}],"tml_elements":["VariableValue","PropertyValue"]},{"VariableValue":[{"nVarNumber":1,"nVarDigits":4,"tml_elements":["nVarNumber","nVarValue","nVarDigits"],"nVarValue":360}],"tml_elements":["VariableValue","PropertyValue"],"PropertyValue":[{"CombinedUncertainty":{"nCombUncertAssessNum":1,"nCombExpandUncertValue":8.4e-05,"tml_elements":["nCombUncertAssessNum","nCombExpandUncertValue"]},"nPropValue":0.001041,"tml_elements":["nPropNumber","nPropValue","nPropDigits","CombinedUncertainty"],"nPropNumber":1,"nPropDigits":4}]},{"VariableValue":[{"nVarValue":360.4,"nVarDigits":4,"tml_elements":["nVarNumber","nVarValue","nVarDigits"],"nVarNumber":1}],"PropertyValue":[{"nPropNumber":1,"nPropDigits":4,"tml_elements":["nPropNumber","nPropValue","nPropDigits","CombinedUncertainty"],"CombinedUncertainty":{"tml_elements":["nCombUncertAssessNum","nCombExpandUncertValue"],"nCombExpandUncertValue":8.3e-05,"nCombUncertAssessNum":1},"nPropValue":0.001057}],"tml_elements":["VariableValue","PropertyValue"]}],"nPureOrMixtureDataNumber":2,"dateDateAdded":"7/26/2010","sCompiler":"RDC","Component":[{"nSampleNm":1,"RegNum":{"tml_elements":["nOrgNum"],"nOrgNum":1},"tml_elements":["RegNum","nSampleNm"]}],"tml_elements":["nPureOrMixtureDataNumber","Component","eExpPurpose","sCompiler","sContributor","dateDateAdded","Property","PhaseID","Variable","NumValues"],"PhaseID":[{"ePhase":"Crystal 3","tml_elements":["ePhase"]},{"tml_elements":["ePhase"],"ePhase":"Gas"}],"sContributor":"TRC","Variable":[{"tml_elements":["nVarNumber","VariableID","VarPhaseID"],"VarPhaseID":{"eVarPhase":"Crystal 3","tml_elements":["eVarPhase"]},"nVarNumber":1,"VariableID":{"VariableType":{"tml_elements":["eTemperature"],"eTemperature":"Temperature, K"},"tml_elements":["VariableType"]}}]}],"Version":{"nVersionMinor":0,"nVersionMajor":2,"tml_elements":["nVersionMajor","nVersionMinor"]}}