{"Version":{"nVersionMajor":2,"nVersionMinor":0,"tml_elements":["nVersionMajor","nVersionMinor"]},"Citation":{"eSourceType":"Original","tml_elements":["TRCRefID","eType","eSourceType","sAuthor","sPubName","yrPubYr","dateCit","sTitle","sAbstract","sKeyword","sDOI","sIDNum","sVol","sPage"],"sKeyword":["Enthalpy of combustion","Enthalpy of vaporization","Enthalpy of formation","Combustion calorimetry","Calvet microcalorimetry","G3(MP2)//B3LYP calculations","2-(5H)-Furanone","2-(5H)-Thiophenone"],"sAuthor":["Ribeiro da Silva, M. A. V.[Manuel A. V.]","Santos, A. F. L. O. M.[Ana Filipa L.O.M.]","Amaral, L. M. P. F.[Luisa M. P. F.]"],"TRCRefID":{"yrYrPub":"2010","tml_elements":["yrYrPub","sAuthor1","sAuthor2","nAuthorn"],"nAuthorn":"4","sAuthor1":"rib","sAuthor2":"san"},"sAbstract":"In the present work, a combined experimental and computational thermochemical study of 2-(5H)-furanone  and 2-(5H)-thiophenone was carried out. The standard (p  = 0.1 MPa) molar enthalpies of formation,  in the liquid phase, for the 2-(5H)-furanone and 2-(5H)-thiophenone, at T = 298.15 K, were  derived from the standard massic energies of combustion, measured by static and rotating bomb combustion  calorimetry, respectively. High temperature Calvet microcalorimetry experiments were performed  to measure their standard molar enthalpies of vaporization. These experiments allowed the determination of the standard molar enthalpies of formation, in the  gaseous phase, at T = 298.15 K. These values are compared with estimated data from G3(MP2)//B3LYP  computations, using several gas-phase working reactions.","sDOI":"10.1016/j.jct.2009.11.013","sTitle":"A calorimetric and computational study on the thermochemistry of 2-(5H)-furanone and 2-(5H)-thiophenone","yrPubYr":"2010","sPubName":"J. Chem. Thermodyn.","dateCit":"2020-09-29","sIDNum":"4","sVol":"42","eType":"journal","sPage":"564-570"},"THERMOML_MD5_CHECKSUM":"a3f1cef25997d305e0ff0d0cf0552b06","Compound":[{"sStandardInChIKey":"CURLTUGMZLYLDI-UHFFFAOYSA-N","RegNum":{"nOrgNum":1,"tml_elements":["nOrgNum"]},"sStandardInChI":"InChI=1S/CO2/c2-1-3","tml_elements":["RegNum","sStandardInChI","sStandardInChIKey","sCommonName","sFormulaMolec"],"sCommonName":["carbon dioxide"],"sFormulaMolec":"CO2"},{"tml_elements":["RegNum","sStandardInChI","sStandardInChIKey","sCommonName","sFormulaMolec"],"sCommonName":["water"],"sFormulaMolec":"H2O","sStandardInChI":"InChI=1S/H2O/h1H2","RegNum":{"tml_elements":["nOrgNum"],"nOrgNum":2},"sStandardInChIKey":"XLYOFNOQVPJJNP-UHFFFAOYSA-N"},{"sStandardInChIKey":"MYMOFIZGZYHOMD-UHFFFAOYSA-N","RegNum":{"nOrgNum":3,"tml_elements":["nOrgNum"]},"sStandardInChI":"InChI=1S/O2/c1-2","sFormulaMolec":"O2","tml_elements":["RegNum","sStandardInChI","sStandardInChIKey","sCommonName","sFormulaMolec"],"sCommonName":["oxygen"]},{"tml_elements":["RegNum","sStandardInChI","sStandardInChIKey","sCommonName","sFormulaMolec"],"sCommonName":["sulfuric acid"],"sFormulaMolec":"H2O4S","RegNum":{"tml_elements":["nOrgNum"],"nOrgNum":4},"sStandardInChI":"InChI=1S/H2O4S/c1-5(2,3)4/h(H2,1,2,3,4)","sStandardInChIKey":"QAOWNCQODCNURD-UHFFFAOYSA-N"},{"sStandardInChIKey":"VIHAEDVKXSOUAT-UHFFFAOYSA-N","RegNum":{"tml_elements":["nOrgNum"],"nOrgNum":5},"sStandardInChI":"InChI=1S/C4H4O2/c5-4-2-1-3-6-4/h1-2H,3H2","tml_elements":["RegNum","sStandardInChI","sStandardInChIKey","sCommonName","sFormulaMolec","Sample"],"Sample":[{"tml_elements":["nSampleNm","eSource","purity"],"purity":[{"nPurityMass":98,"eAnalMeth":["Stated by supplier"],"nStep":1,"tml_elements":["nStep","nPurityMass","nPurityMassDigits","eAnalMeth"],"nPurityMassDigits":2},{"tml_elements":["nStep","ePurifMethod"],"nStep":2,"ePurifMethod":["Fractional distillation"]},{"eAnalMeth":["Gas chromatography"],"nPurityMass":99.9,"nStep":3,"nPurityMassDigits":3,"tml_elements":["nStep","nPurityMass","nPurityMassDigits","eAnalMeth"]},{"nPurityMol":99.992,"tml_elements":["nStep","nPurityMol","nPurityMolDigits","eAnalMeth"],"nStep":4,"nPurityMolDigits":5,"eAnalMeth":["CO2 yield in combustion products"]}],"nSampleNm":1,"eSource":"Commercial source"}],"sCommonName":["(5H)-furan-2-one","2(5H)-furanone"],"sFormulaMolec":"C4H4O2"},{"sStandardInChIKey":"NMSLUAZZTFUUFZ-UHFFFAOYSA-N","RegNum":{"nOrgNum":6,"tml_elements":["nOrgNum"]},"sStandardInChI":"InChI=1S/C4H4OS/c5-4-2-1-3-6-4/h1-2H,3H2","tml_elements":["RegNum","sStandardInChI","sStandardInChIKey","sCommonName","sFormulaMolec","Sample"],"sCommonName":["2(5H)-thiophenone"],"Sample":[{"eSource":"Commercial source","nSampleNm":1,"purity":[{"eAnalMeth":["Stated by supplier"],"nPurityMass":98,"nPurityMassDigits":2,"tml_elements":["nStep","nPurityMass","nPurityMassDigits","eAnalMeth"],"nStep":1},{"tml_elements":["nStep","ePurifMethod"],"nStep":2,"ePurifMethod":["Fractional distillation"]},{"nPurityMassDigits":3,"tml_elements":["nStep","nPurityMass","nPurityMassDigits","eAnalMeth"],"nStep":3,"nPurityMass":99.9,"eAnalMeth":["Gas chromatography"]}],"tml_elements":["nSampleNm","eSource","purity"]}],"sFormulaMolec":"C4H4OS"}],"tml_elements":["Version","Citation","Compound","PureOrMixtureData","ReactionData"],"ReactionData":[{"Property":[{"nTemperatureDigits":5,"Property-MethodID":{"PropertyGroup":{"tml_elements":["ReactionStateChangeProp"],"ReactionStateChangeProp":{"tml_elements":["ePropName","eMethodName"],"ePropName":"Specific internal energy of reaction at constant volume, J/g","eMethodName":"Static bomb calorimetry"}},"tml_elements":["PropertyGroup"]},"nPressureDigits":1,"nPressure-kPa":"100","CombinedUncertainty":{"nCombUncertAssessNum":1,"sCombUncertEvaluator":"Data file compiler","tml_elements":["nCombUncertAssessNum","sCombUncertEvaluator","eCombUncertEvalMethod","nCombUncertLevOfConfid"],"nCombUncertLevOfConfid":95,"eCombUncertEvalMethod":"Propagation of evaluated standard uncertainties"},"nTemperature-K":"298.15","tml_elements":["nPropNumber","Property-MethodID","nTemperature-K","nTemperatureDigits","nPressure-kPa","nPressureDigits","CombinedUncertainty"],"nPropNumber":1}],"eExpPurpose":"Principal objective of the work","NumValues":[{"PropertyValue":[{"CombinedUncertainty":{"nCombUncertAssessNum":1,"nCombExpandUncertValue":6.2,"tml_elements":["nCombUncertAssessNum","nCombExpandUncertValue"]},"nPropValue":-21801.1,"tml_elements":["nPropNumber","nPropValue","nPropDigits","CombinedUncertainty"],"nPropNumber":1,"nPropDigits":6}],"tml_elements":["PropertyValue"],"VariableValue":[]}],"sCompiler":"GPC","dateDateAdded":"1/11/2012","eReactionType":"Combustion with oxygen","tml_elements":["nReactionDataNumber","Participant","eExpPurpose","sCompiler","sContributor","dateDateAdded","eReactionType","Property","NumValues"],"Participant":[{"tml_elements":["RegNum","nSampleNm","nStoichiometricCoef","ePhase"],"ePhase":"Liquid","nStoichiometricCoef":"-1","nSampleNm":1,"RegNum":{"tml_elements":["nOrgNum"],"nOrgNum":5}},{"tml_elements":["RegNum","nStoichiometricCoef","ePhase"],"ePhase":"Ideal gas","RegNum":{"tml_elements":["nOrgNum"],"nOrgNum":1},"nStoichiometricCoef":"4"},{"ePhase":"Liquid","tml_elements":["RegNum","nStoichiometricCoef","ePhase"],"nStoichiometricCoef":"2","RegNum":{"tml_elements":["nOrgNum"],"nOrgNum":2}},{"tml_elements":["RegNum","nStoichiometricCoef","ePhase"],"ePhase":"Ideal gas","RegNum":{"tml_elements":["nOrgNum"],"nOrgNum":3},"nStoichiometricCoef":"-4"}],"sContributor":"XXX","nReactionDataNumber":1},{"Property":[{"nPropNumber":1,"tml_elements":["nPropNumber","Property-MethodID","nTemperature-K","nTemperatureDigits","nPressure-kPa","nPressureDigits","CombinedUncertainty"],"CombinedUncertainty":{"nCombUncertAssessNum":1,"sCombUncertEvaluator":"Data file compiler","tml_elements":["nCombUncertAssessNum","sCombUncertEvaluator","eCombUncertEvalMethod","nCombUncertLevOfConfid"],"nCombUncertLevOfConfid":95,"eCombUncertEvalMethod":"Propagation of evaluated standard uncertainties"},"nTemperature-K":"298.15","nPressureDigits":1,"nPressure-kPa":"100","Property-MethodID":{"PropertyGroup":{"tml_elements":["ReactionStateChangeProp"],"ReactionStateChangeProp":{"ePropName":"Specific internal energy of reaction at constant volume, J/g","eMethodName":"Rotating bomb calorimetry","tml_elements":["ePropName","eMethodName"]}},"tml_elements":["PropertyGroup"]},"nTemperatureDigits":5}],"eExpPurpose":"Principal objective of the work","dateDateAdded":"1/11/2012","sCompiler":"GPC","NumValues":[{"VariableValue":[],"tml_elements":["PropertyValue"],"PropertyValue":[{"nPropValue":-26167.3,"CombinedUncertainty":{"nCombUncertAssessNum":1,"nCombExpandUncertValue":12.8,"tml_elements":["nCombUncertAssessNum","nCombExpandUncertValue"]},"tml_elements":["nPropNumber","nPropValue","nPropDigits","CombinedUncertainty"],"nPropDigits":6,"nPropNumber":1}]}],"tml_elements":["nReactionDataNumber","Participant","eExpPurpose","sCompiler","sContributor","dateDateAdded","eReactionType","Property","NumValues"],"Participant":[{"RegNum":{"nOrgNum":6,"tml_elements":["nOrgNum"]},"nStoichiometricCoef":"-1","nSampleNm":1,"tml_elements":["RegNum","nSampleNm","nStoichiometricCoef","ePhase"],"ePhase":"Liquid"},{"tml_elements":["RegNum","nStoichiometricCoef","ePhase"],"ePhase":"Solution 1","RegNum":{"tml_elements":["nOrgNum"],"nOrgNum":4},"nStoichiometricCoef":"1"},{"RegNum":{"tml_elements":["nOrgNum"],"nOrgNum":1},"nStoichiometricCoef":"4","ePhase":"Ideal gas","tml_elements":["RegNum","nStoichiometricCoef","ePhase"]},{"RegNum":{"nOrgNum":2,"tml_elements":["nOrgNum"]},"nStoichiometricCoef":"1","ePhase":"Liquid","tml_elements":["RegNum","nStoichiometricCoef","ePhase"]},{"tml_elements":["RegNum","nStoichiometricCoef","ePhase"],"ePhase":"Ideal gas","RegNum":{"nOrgNum":3,"tml_elements":["nOrgNum"]},"nStoichiometricCoef":"-6"}],"eReactionType":"Combustion with oxygen","nReactionDataNumber":2,"sContributor":"XXX"}],"PureOrMixtureData":[{"tml_elements":["nPureOrMixtureDataNumber","Component","eExpPurpose","sCompiler","sContributor","dateDateAdded","Property","PhaseID","NumValues"],"PhaseID":[{"ePhase":"Liquid","tml_elements":["ePhase"]},{"ePhase":"Gas","tml_elements":["ePhase"]}],"Component":[{"nSampleNm":1,"RegNum":{"nOrgNum":5,"tml_elements":["nOrgNum"]},"tml_elements":["RegNum","nSampleNm"]}],"sContributor":"XXX","Property":[{"PropPhaseID":{"ePropPhase":"Liquid","tml_elements":["ePropPhase"]},"nPropNumber":1,"ePresentation":"Direct value, X","tml_elements":["nPropNumber","Property-MethodID","PropPhaseID","ePresentation","CombinedUncertainty"],"Property-MethodID":{"PropertyGroup":{"VaporPBoilingTAzeotropTandP":{"ePropName":"Normal boiling temperature, K","sMethodName":"Calvet microcalorimetry","tml_elements":["ePropName","sMethodName"]},"tml_elements":["VaporPBoilingTAzeotropTandP"]},"tml_elements":["PropertyGroup"]},"CombinedUncertainty":{"nCombUncertLevOfConfid":95,"eCombUncertEvalMethod":"Propagation of evaluated standard uncertainties","tml_elements":["nCombUncertAssessNum","sCombUncertEvaluator","eCombUncertEvalMethod","nCombUncertLevOfConfid"],"sCombUncertEvaluator":"Data file compiler","nCombUncertAssessNum":1}}],"eExpPurpose":"Principal objective of the work","nPureOrMixtureDataNumber":1,"dateDateAdded":"1/11/2012","sCompiler":"GPC","NumValues":[{"VariableValue":[],"PropertyValue":[{"CombinedUncertainty":{"nCombUncertAssessNum":1,"tml_elements":["nCombUncertAssessNum","nCombExpandUncertValue"],"nCombExpandUncertValue":0.2},"nPropValue":329,"nPropNumber":1,"nPropDigits":3,"tml_elements":["nPropNumber","nPropValue","nPropDigits","CombinedUncertainty"]}],"tml_elements":["PropertyValue"]}]},{"Property":[{"CombinedUncertainty":{"nCombUncertAssessNum":1,"sCombUncertEvaluator":"Data file compiler","tml_elements":["nCombUncertAssessNum","sCombUncertEvaluator","eCombUncertEvalMethod","nCombUncertLevOfConfid"],"eCombUncertEvalMethod":"Propagation of evaluated standard uncertainties","nCombUncertLevOfConfid":95},"ePresentation":"Direct value, X","tml_elements":["nPropNumber","Property-MethodID","PropPhaseID","ePresentation","CombinedUncertainty"],"PropPhaseID":{"tml_elements":["ePropPhase"],"ePropPhase":"Liquid"},"Property-MethodID":{"PropertyGroup":{"tml_elements":["PhaseTransition"],"PhaseTransition":{"ePropName":"Molar enthalpy of vaporization or sublimation, kJ/mol","sMethodName":"Calvet microcalorimetry","tml_elements":["ePropName","sMethodName"]}},"tml_elements":["PropertyGroup"]},"nPropNumber":1}],"eExpPurpose":"Principal objective of the work","sCompiler":"GPC","nPureOrMixtureDataNumber":2,"dateDateAdded":"1/11/2012","NumValues":[{"PropertyValue":[{"nPropValue":55.6,"CombinedUncertainty":{"nCombUncertAssessNum":1,"tml_elements":["nCombUncertAssessNum","nCombExpandUncertValue"],"nCombExpandUncertValue":2.6},"nPropNumber":1,"nPropDigits":3,"tml_elements":["nPropNumber","nPropValue","nPropDigits","CombinedUncertainty"]}],"tml_elements":["VariableValue","PropertyValue"],"VariableValue":[{"nVarValue":298.15,"tml_elements":["nVarNumber","nVarValue","nVarDigits"],"nVarDigits":5,"nVarNumber":1}]}],"PhaseID":[{"tml_elements":["ePhase"],"ePhase":"Liquid"},{"ePhase":"Gas","tml_elements":["ePhase"]}],"tml_elements":["nPureOrMixtureDataNumber","Component","eExpPurpose","sCompiler","sContributor","dateDateAdded","Property","PhaseID","Variable","NumValues"],"Component":[{"RegNum":{"tml_elements":["nOrgNum"],"nOrgNum":5},"nSampleNm":1,"tml_elements":["RegNum","nSampleNm"]}],"Variable":[{"tml_elements":["nVarNumber","VariableID","VarPhaseID"],"VarPhaseID":{"tml_elements":["eVarPhase"],"eVarPhase":"Liquid"},"nVarNumber":1,"VariableID":{"tml_elements":["VariableType"],"VariableType":{"eTemperature":"Temperature, K","tml_elements":["eTemperature"]}}}],"sContributor":"XXX"},{"Variable":[{"VarPhaseID":{"tml_elements":["eVarPhase"],"eVarPhase":"Gas"},"nVarNumber":1,"tml_elements":["nVarNumber","VariableID","VarPhaseID"],"VariableID":{"VariableType":{"tml_elements":["eTemperature"],"eTemperature":"Temperature, K"},"tml_elements":["VariableType"]}},{"VarPhaseID":{"tml_elements":["eVarPhase"],"eVarPhase":"Gas"},"nVarNumber":2,"tml_elements":["nVarNumber","VariableID","VarPhaseID"],"VariableID":{"tml_elements":["VariableType"],"VariableType":{"ePressure":"Pressure, kPa","tml_elements":["ePressure"]}}}],"sContributor":"XXX","PhaseID":[{"ePhase":"Gas","tml_elements":["ePhase"]}],"tml_elements":["nPureOrMixtureDataNumber","Component","eExpPurpose","sCompiler","sContributor","dateDateAdded","Property","PhaseID","Variable","NumValues"],"Component":[{"tml_elements":["RegNum","nSampleNm"],"nSampleNm":1,"RegNum":{"tml_elements":["nOrgNum"],"nOrgNum":5}}],"sCompiler":"RDC","nPureOrMixtureDataNumber":3,"dateDateAdded":"1/11/2012","NumValues":[{"VariableValue":[{"nVarValue":329,"nVarDigits":4,"tml_elements":["nVarNumber","nVarValue","nVarDigits"],"nVarNumber":1},{"nVarValue":101,"nVarDigits":3,"tml_elements":["nVarNumber","nVarValue","nVarDigits"],"nVarNumber":2}],"PropertyValue":[{"tml_elements":["nPropNumber","nPropValue","nPropDigits","CombinedUncertainty"],"nPropNumber":1,"nPropDigits":3,"CombinedUncertainty":{"nCombExpandUncertValue":0.2,"tml_elements":["nCombUncertAssessNum","nCombExpandUncertValue"],"nCombUncertAssessNum":1},"nPropValue":58.3}],"tml_elements":["VariableValue","PropertyValue"]}],"eExpPurpose":"Principal objective of the work","Property":[{"CombinedUncertainty":{"eCombUncertEvalMethod":"Propagation of evaluated standard uncertainties","nCombUncertLevOfConfid":95,"tml_elements":["nCombUncertAssessNum","sCombUncertEvaluator","eCombUncertEvalMethod","nCombUncertLevOfConfid"],"sCombUncertEvaluator":"Data file compiler","nCombUncertAssessNum":1},"nRefTemp":"298.15","RefPhaseID":{"eRefPhase":"Liquid","tml_elements":["eRefPhase"]},"Property-MethodID":{"PropertyGroup":{"HeatCapacityAndDerivedProp":{"tml_elements":["ePropName","sMethodName"],"ePropName":"Molar enthalpy, kJ/mol","sMethodName":"Calvet microcalorimetry"},"tml_elements":["HeatCapacityAndDerivedProp"]},"tml_elements":["PropertyGroup"]},"nRefPressure":"101","eRefStateType":"Reference phase with the same composition at fixed temperature and pressure","nRefPressureDigits":3,"nRefTempDigits":5,"PropPhaseID":{"ePropPhase":"Gas","tml_elements":["ePropPhase"]},"nPropNumber":1,"ePresentation":"Difference with the reference state, X-X(REF)","tml_elements":["nPropNumber","Property-MethodID","PropPhaseID","ePresentation","eRefStateType","nRefTemp","nRefTempDigits","nRefPressure","nRefPressureDigits","RefPhaseID","CombinedUncertainty"]}]},{"sCompiler":"GPC","nPureOrMixtureDataNumber":4,"dateDateAdded":"1/11/2012","NumValues":[{"tml_elements":["PropertyValue"],"PropertyValue":[{"tml_elements":["nPropNumber","nPropValue","nPropDigits","CombinedUncertainty"],"nPropNumber":1,"nPropDigits":3,"nPropValue":376,"CombinedUncertainty":{"nCombExpandUncertValue":0.2,"tml_elements":["nCombUncertAssessNum","nCombExpandUncertValue"],"nCombUncertAssessNum":1}}],"VariableValue":[]}],"eExpPurpose":"Principal objective of the work","Property":[{"PropPhaseID":{"ePropPhase":"Liquid","tml_elements":["ePropPhase"]},"nPropNumber":1,"ePresentation":"Direct value, X","tml_elements":["nPropNumber","Property-MethodID","PropPhaseID","ePresentation","CombinedUncertainty"],"Property-MethodID":{"PropertyGroup":{"VaporPBoilingTAzeotropTandP":{"tml_elements":["ePropName","sMethodName"],"sMethodName":"Calvet microcalorimetry","ePropName":"Normal boiling temperature, K"},"tml_elements":["VaporPBoilingTAzeotropTandP"]},"tml_elements":["PropertyGroup"]},"CombinedUncertainty":{"eCombUncertEvalMethod":"Propagation of evaluated standard uncertainties","nCombUncertLevOfConfid":95,"tml_elements":["nCombUncertAssessNum","sCombUncertEvaluator","eCombUncertEvalMethod","nCombUncertLevOfConfid"],"sCombUncertEvaluator":"Data file compiler","nCombUncertAssessNum":1}}],"sContributor":"XXX","PhaseID":[{"ePhase":"Liquid","tml_elements":["ePhase"]},{"tml_elements":["ePhase"],"ePhase":"Gas"}],"tml_elements":["nPureOrMixtureDataNumber","Component","eExpPurpose","sCompiler","sContributor","dateDateAdded","Property","PhaseID","NumValues"],"Component":[{"tml_elements":["RegNum","nSampleNm"],"nSampleNm":1,"RegNum":{"nOrgNum":6,"tml_elements":["nOrgNum"]}}]},{"sCompiler":"GPC","nPureOrMixtureDataNumber":5,"dateDateAdded":"1/11/2012","NumValues":[{"VariableValue":[{"nVarNumber":1,"nVarDigits":5,"tml_elements":["nVarNumber","nVarValue","nVarDigits"],"nVarValue":298.15}],"PropertyValue":[{"nPropValue":56,"CombinedUncertainty":{"nCombExpandUncertValue":2.4,"tml_elements":["nCombUncertAssessNum","nCombExpandUncertValue"],"nCombUncertAssessNum":1},"nPropDigits":2,"nPropNumber":1,"tml_elements":["nPropNumber","nPropValue","nPropDigits","CombinedUncertainty"]}],"tml_elements":["VariableValue","PropertyValue"]}],"eExpPurpose":"Principal objective of the work","Property":[{"CombinedUncertainty":{"eCombUncertEvalMethod":"Propagation of evaluated standard uncertainties","nCombUncertLevOfConfid":95,"tml_elements":["nCombUncertAssessNum","sCombUncertEvaluator","eCombUncertEvalMethod","nCombUncertLevOfConfid"],"sCombUncertEvaluator":"Data file compiler","nCombUncertAssessNum":1},"tml_elements":["nPropNumber","Property-MethodID","PropPhaseID","ePresentation","CombinedUncertainty"],"ePresentation":"Direct value, X","nPropNumber":1,"Property-MethodID":{"PropertyGroup":{"PhaseTransition":{"tml_elements":["ePropName","sMethodName"],"ePropName":"Molar enthalpy of vaporization or sublimation, kJ/mol","sMethodName":"Calvet microcalorimetry"},"tml_elements":["PhaseTransition"]},"tml_elements":["PropertyGroup"]},"PropPhaseID":{"tml_elements":["ePropPhase"],"ePropPhase":"Liquid"}}],"Variable":[{"VarPhaseID":{"eVarPhase":"Liquid","tml_elements":["eVarPhase"]},"nVarNumber":1,"tml_elements":["nVarNumber","VariableID","VarPhaseID"],"VariableID":{"VariableType":{"tml_elements":["eTemperature"],"eTemperature":"Temperature, K"},"tml_elements":["VariableType"]}}],"sContributor":"XXX","PhaseID":[{"tml_elements":["ePhase"],"ePhase":"Liquid"},{"ePhase":"Gas","tml_elements":["ePhase"]}],"tml_elements":["nPureOrMixtureDataNumber","Component","eExpPurpose","sCompiler","sContributor","dateDateAdded","Property","PhaseID","Variable","NumValues"],"Component":[{"tml_elements":["RegNum","nSampleNm"],"RegNum":{"nOrgNum":6,"tml_elements":["nOrgNum"]},"nSampleNm":1}]},{"NumValues":[{"VariableValue":[{"nVarValue":376,"nVarDigits":4,"tml_elements":["nVarNumber","nVarValue","nVarDigits"],"nVarNumber":1},{"nVarValue":101,"tml_elements":["nVarNumber","nVarValue","nVarDigits"],"nVarDigits":3,"nVarNumber":2}],"tml_elements":["VariableValue","PropertyValue"],"PropertyValue":[{"nPropNumber":1,"nPropDigits":3,"tml_elements":["nPropNumber","nPropValue","nPropDigits","CombinedUncertainty"],"CombinedUncertainty":{"nCombUncertAssessNum":1,"nCombExpandUncertValue":0.4,"tml_elements":["nCombUncertAssessNum","nCombExpandUncertValue"]},"nPropValue":63.8}]}],"sCompiler":"RDC","nPureOrMixtureDataNumber":6,"dateDateAdded":"1/11/2012","Property":[{"eRefStateType":"Reference phase with the same composition at fixed temperature and pressure","nRefPressure":"101","CombinedUncertainty":{"nCombUncertAssessNum":1,"sCombUncertEvaluator":"Data file compiler","tml_elements":["nCombUncertAssessNum","sCombUncertEvaluator","eCombUncertEvalMethod","nCombUncertLevOfConfid"],"nCombUncertLevOfConfid":95,"eCombUncertEvalMethod":"Propagation of evaluated standard uncertainties"},"tml_elements":["nPropNumber","Property-MethodID","PropPhaseID","ePresentation","eRefStateType","nRefTemp","nRefTempDigits","nRefPressure","nRefPressureDigits","RefPhaseID","CombinedUncertainty"],"nPropNumber":1,"PropPhaseID":{"ePropPhase":"Gas","tml_elements":["ePropPhase"]},"nRefTempDigits":5,"nRefPressureDigits":3,"RefPhaseID":{"eRefPhase":"Liquid","tml_elements":["eRefPhase"]},"Property-MethodID":{"tml_elements":["PropertyGroup"],"PropertyGroup":{"tml_elements":["HeatCapacityAndDerivedProp"],"HeatCapacityAndDerivedProp":{"tml_elements":["ePropName","sMethodName"],"ePropName":"Molar enthalpy, kJ/mol","sMethodName":"Calvet microcalorimetry"}}},"nRefTemp":"298.15","ePresentation":"Difference with the reference state, X-X(REF)"}],"eExpPurpose":"Principal objective of the work","Variable":[{"nVarNumber":1,"VarPhaseID":{"eVarPhase":"Gas","tml_elements":["eVarPhase"]},"tml_elements":["nVarNumber","VariableID","VarPhaseID"],"VariableID":{"VariableType":{"tml_elements":["eTemperature"],"eTemperature":"Temperature, K"},"tml_elements":["VariableType"]}},{"VariableID":{"VariableType":{"tml_elements":["ePressure"],"ePressure":"Pressure, kPa"},"tml_elements":["VariableType"]},"nVarNumber":2,"VarPhaseID":{"eVarPhase":"Gas","tml_elements":["eVarPhase"]},"tml_elements":["nVarNumber","VariableID","VarPhaseID"]}],"sContributor":"XXX","Component":[{"nSampleNm":1,"RegNum":{"nOrgNum":6,"tml_elements":["nOrgNum"]},"tml_elements":["RegNum","nSampleNm"]}],"PhaseID":[{"tml_elements":["ePhase"],"ePhase":"Gas"}],"tml_elements":["nPureOrMixtureDataNumber","Component","eExpPurpose","sCompiler","sContributor","dateDateAdded","Property","PhaseID","Variable","NumValues"]}]}