{"Citation":{"sVol":"40","eType":"journal","sPage":"1226-1231","yrPubYr":"2008","sPubName":"J. Chem. Thermodyn.","sIDNum":"8","dateCit":"2020-09-29","sAuthor":["Ribeiro da Silva, M. A. V.[Manuel A. V.]","Amaral, L. M. P. F.[Luisa M. P. F.]","Boaventura, C. R. P.[Cristina R.P.]","Gomes, J. R. B.[Jose R.B.]"],"sKeyword":["Thermochemistry  Energy of combustion  Enthalpy of formation  Enthalpy of sublimation  Cyanobenzoic acids  Computational thermochemistry  Cox scheme"],"tml_elements":["TRCRefID","eType","eSourceType","sAuthor","sPubName","yrPubYr","dateCit","sTitle","sAbstract","sKeyword","sDOI","sIDNum","sVol","sPage"],"sTitle":"Standard molar enthalpies of formation of 2-, 3- and 4-cyanobenzoic acids","sDOI":"10.1016/j.jct.2008.04.004","TRCRefID":{"sAuthor2":"ama","sAuthor1":"rib","nAuthorn":"0","tml_elements":["yrYrPub","sAuthor1","sAuthor2","nAuthorn"],"yrYrPub":"2008"},"sAbstract":"The standard (p  = 0.1 MPa) molar enthalpies of formation of 2-, 3- and 4-cyanobenzoic acids were  derived from their standard molar energies of combustion, in oxygen, at T = 298.15 K, measured by static  bomb combustion calorimetry. The Calvet high temperature vacuum sublimation technique was used to  measure the enthalpies of sublimation of 2- and 3-cyanobenzoic acids. The standard molar enthalpies of  formation of the three compounds, in the gaseous phase, at T = 298.15 K, have been derived from the corresponding  standard molar enthalpies of formation in the condensed phase and standard molar enthalpies  for phase transition. The results obtained are  (150.7 +- 2.0) kJ   mol 1,  (153.6 +- 1.7) kJ   mol 1 and   (157.1 +- 1.4) kJ   mol 1 for 2-cyano, 3-cyano and 4-cyanobenzoic acids, respectively. Standard molar  enthalpies of formation were also estimated by employing two different methodologies: one based on  the Cox scheme and the other one based on several different computational approaches. The calculated  values show a good agreement with the experimental values obtained in this work.","eSourceType":"Original"},"Version":{"tml_elements":["nVersionMajor","nVersionMinor"],"nVersionMinor":0,"nVersionMajor":2},"THERMOML_MD5_CHECKSUM":"1dcb76a4601a265071911d9911144a64","Compound":[{"RegNum":{"nOrgNum":1,"tml_elements":["nOrgNum"]},"sStandardInChI":"InChI=1S/CO2/c2-1-3","sStandardInChIKey":"CURLTUGMZLYLDI-UHFFFAOYSA-N","sFormulaMolec":"CO2","sCommonName":["carbon dioxide"],"tml_elements":["RegNum","sStandardInChI","sStandardInChIKey","sCommonName","sFormulaMolec"]},{"sFormulaMolec":"N2","tml_elements":["RegNum","sStandardInChI","sStandardInChIKey","sCommonName","sFormulaMolec"],"sCommonName":["nitrogen"],"sStandardInChIKey":"IJGRMHOSHXDMSA-UHFFFAOYSA-N","RegNum":{"nOrgNum":2,"tml_elements":["nOrgNum"]},"sStandardInChI":"InChI=1S/N2/c1-2"},{"tml_elements":["RegNum","sStandardInChI","sStandardInChIKey","sCommonName","sFormulaMolec"],"sCommonName":["water"],"sFormulaMolec":"H2O","RegNum":{"tml_elements":["nOrgNum"],"nOrgNum":3},"sStandardInChI":"InChI=1S/H2O/h1H2","sStandardInChIKey":"XLYOFNOQVPJJNP-UHFFFAOYSA-N"},{"sCommonName":["oxygen"],"tml_elements":["RegNum","sStandardInChI","sStandardInChIKey","sCommonName","sFormulaMolec"],"sFormulaMolec":"O2","RegNum":{"nOrgNum":4,"tml_elements":["nOrgNum"]},"sStandardInChI":"InChI=1S/O2/c1-2","sStandardInChIKey":"MYMOFIZGZYHOMD-UHFFFAOYSA-N"},{"sStandardInChIKey":"DTNSDCJFTHMDAK-UHFFFAOYSA-N","sStandardInChI":"InChI=1S/C8H5NO2/c9-5-6-3-1-2-4-7(6)8(10)11/h1-4H,(H,10,11)","RegNum":{"tml_elements":["nOrgNum"],"nOrgNum":5},"sFormulaMolec":"C8H5NO2","tml_elements":["RegNum","sStandardInChI","sStandardInChIKey","sCommonName","sFormulaMolec","Sample"],"sCommonName":["2-cyanobenzoic acid","benzoic acid, 2-cyano-","benzoic acid, o-cyano-","o-carboxybenzonitrile","o-cyanobenzoic acid"],"Sample":[{"eSource":"Commercial source","nSampleNm":1,"purity":[{"eAnalMeth":["Stated by supplier"],"nStep":1,"nPurityMolDigits":2,"tml_elements":["nStep","nPurityMol","nPurityMolDigits","eAnalMeth"],"nPurityMol":99},{"nStep":2,"tml_elements":["nStep","ePurifMethod"],"ePurifMethod":["Sublimation"]}],"tml_elements":["nSampleNm","eSource","purity"]}]},{"sStandardInChIKey":"GYLKKXHEIIFTJH-UHFFFAOYSA-N","RegNum":{"nOrgNum":6,"tml_elements":["nOrgNum"]},"sStandardInChI":"InChI=1S/C8H5NO2/c9-5-6-2-1-3-7(4-6)8(10)11/h1-4H,(H,10,11)","sFormulaMolec":"C8H5NO2","sCommonName":["3-cyanobenzoic acid"],"tml_elements":["RegNum","sStandardInChI","sStandardInChIKey","sCommonName","sFormulaMolec","Sample"],"Sample":[{"nSampleNm":1,"eSource":"Commercial source","tml_elements":["nSampleNm","eSource","purity"],"purity":[{"eAnalMeth":["Stated by supplier"],"nStep":1,"nPurityMolDigits":2,"tml_elements":["nStep","nPurityMol","nPurityMolDigits","eAnalMeth"],"nPurityMol":98},{"tml_elements":["nStep","ePurifMethod"],"nStep":2,"ePurifMethod":["Sublimation"]}]}]},{"sStandardInChIKey":"ADCUEPOHPCPMCE-UHFFFAOYSA-N","RegNum":{"tml_elements":["nOrgNum"],"nOrgNum":7},"sStandardInChI":"InChI=1S/C8H5NO2/c9-5-6-1-3-7(4-2-6)8(10)11/h1-4H,(H,10,11)","sFormulaMolec":"C8H5NO2","tml_elements":["RegNum","sStandardInChI","sStandardInChIKey","sCommonName","sFormulaMolec","Sample"],"sCommonName":["4-cyanobenzoic acid","p-cyanobenzoic acid"],"Sample":[{"tml_elements":["nSampleNm","eSource","purity"],"purity":[{"nPurityMol":99,"tml_elements":["nStep","nPurityMol","nPurityMolDigits","eAnalMeth"],"nStep":1,"nPurityMolDigits":2,"eAnalMeth":["Stated by supplier"]},{"ePurifMethod":["Fractional crystallization","Sublimation"],"tml_elements":["nStep","ePurifMethod","ePurifMethod"],"nStep":2}],"nSampleNm":1,"eSource":"Commercial source"}]}],"tml_elements":["Version","Citation","Compound","PureOrMixtureData","ReactionData"],"PureOrMixtureData":[{"sContributor":"TRC","Component":[{"RegNum":{"tml_elements":["nOrgNum"],"nOrgNum":5},"nSampleNm":1,"tml_elements":["RegNum","nSampleNm"]}],"tml_elements":["nPureOrMixtureDataNumber","Component","eExpPurpose","sCompiler","sContributor","dateDateAdded","Property","PhaseID","NumValues"],"PhaseID":[{"ePhase":"Crystal","tml_elements":["ePhase"]},{"tml_elements":["ePhase"],"ePhase":"Liquid"},{"ePhase":"Air at 1 atmosphere","tml_elements":["ePhase"]}],"NumValues":[{"PropertyValue":[{"tml_elements":["nPropNumber","nPropValue","nPropDigits","CombinedUncertainty"],"nPropDigits":4,"nPropNumber":1,"CombinedUncertainty":{"nCombUncertAssessNum":1,"tml_elements":["nCombUncertAssessNum","nCombExpandUncertValue"],"nCombExpandUncertValue":0.5},"nPropValue":505.7}],"tml_elements":["PropertyValue"],"VariableValue":[]}],"nPureOrMixtureDataNumber":1,"dateDateAdded":"9/25/2008","sCompiler":"JFK","eExpPurpose":"Principal objective of the work","Property":[{"PropPhaseID":{"ePropPhase":"Crystal","tml_elements":["ePropPhase"]},"Property-MethodID":{"tml_elements":["PropertyGroup"],"PropertyGroup":{"tml_elements":["PhaseTransition"],"PhaseTransition":{"tml_elements":["ePropName","sMethodName"],"ePropName":"Normal melting temperature, K","sMethodName":"DTA"}}},"nPropNumber":1,"ePresentation":"Direct value, X","tml_elements":["nPropNumber","Property-MethodID","PropPhaseID","ePresentation","CombinedUncertainty"],"CombinedUncertainty":{"nCombUncertLevOfConfid":95,"eCombUncertEvalMethod":"Propagation of evaluated standard uncertainties","tml_elements":["nCombUncertAssessNum","sCombUncertEvaluator","eCombUncertEvalMethod","nCombUncertLevOfConfid"],"sCombUncertEvaluator":"Data file compiler","nCombUncertAssessNum":1}}]},{"sContributor":"TRC","Variable":[{"nVarNumber":1,"VarPhaseID":{"eVarPhase":"Crystal","tml_elements":["eVarPhase"]},"tml_elements":["nVarNumber","VariableID","VarPhaseID"],"VariableID":{"VariableType":{"tml_elements":["eTemperature"],"eTemperature":"Temperature, K"},"tml_elements":["VariableType"]}}],"Component":[{"nSampleNm":1,"RegNum":{"nOrgNum":5,"tml_elements":["nOrgNum"]},"tml_elements":["RegNum","nSampleNm"]}],"tml_elements":["nPureOrMixtureDataNumber","Component","eExpPurpose","sCompiler","sContributor","dateDateAdded","Property","PhaseID","Variable","NumValues"],"PhaseID":[{"ePhase":"Crystal","tml_elements":["ePhase"]},{"tml_elements":["ePhase"],"ePhase":"Gas"}],"NumValues":[{"VariableValue":[{"nVarValue":298.15,"nVarDigits":5,"tml_elements":["nVarNumber","nVarValue","nVarDigits"],"nVarNumber":1}],"PropertyValue":[{"tml_elements":["nPropNumber","nPropValue","nPropDigits","CombinedUncertainty"],"nPropNumber":1,"nPropDigits":4,"nPropValue":114.6,"CombinedUncertainty":{"tml_elements":["nCombUncertAssessNum","nCombExpandUncertValue"],"nCombExpandUncertValue":3,"nCombUncertAssessNum":1}}],"tml_elements":["VariableValue","PropertyValue"]}],"nPureOrMixtureDataNumber":2,"dateDateAdded":"9/25/2008","sCompiler":"JFK","Property":[{"CombinedUncertainty":{"tml_elements":["nCombUncertAssessNum","sCombUncertEvaluator","eCombUncertEvalMethod","nCombUncertLevOfConfid"],"nCombUncertLevOfConfid":95,"eCombUncertEvalMethod":"Propagation of evaluated standard uncertainties","nCombUncertAssessNum":1,"sCombUncertEvaluator":"Data file compiler"},"nPropNumber":1,"Property-MethodID":{"tml_elements":["PropertyGroup"],"PropertyGroup":{"tml_elements":["PhaseTransition"],"PhaseTransition":{"ePropName":"Molar enthalpy of vaporization or sublimation, kJ/mol","sMethodName":"Vacuum drop calorimetry","tml_elements":["ePropName","sMethodName"]}}},"PropPhaseID":{"tml_elements":["ePropPhase"],"ePropPhase":"Crystal"},"tml_elements":["nPropNumber","Property-MethodID","PropPhaseID","ePresentation","CombinedUncertainty"],"ePresentation":"Direct value, X"}],"eExpPurpose":"Principal objective of the work"},{"Variable":[{"VariableID":{"VariableType":{"eTemperature":"Temperature, K","tml_elements":["eTemperature"]},"tml_elements":["VariableType"]},"tml_elements":["nVarNumber","VariableID","VarPhaseID"],"VarPhaseID":{"tml_elements":["eVarPhase"],"eVarPhase":"Gas"},"nVarNumber":1},{"VariableID":{"tml_elements":["VariableType"],"VariableType":{"ePressure":"Pressure, kPa","tml_elements":["ePressure"]}},"nVarNumber":2,"VarPhaseID":{"tml_elements":["eVarPhase"],"eVarPhase":"Gas"},"tml_elements":["nVarNumber","VariableID","VarPhaseID"]}],"sContributor":"TRC","PhaseID":[{"ePhase":"Gas","tml_elements":["ePhase"]}],"tml_elements":["nPureOrMixtureDataNumber","Component","eExpPurpose","sCompiler","sContributor","dateDateAdded","Property","PhaseID","Variable","NumValues"],"Component":[{"nSampleNm":1,"RegNum":{"tml_elements":["nOrgNum"],"nOrgNum":5},"tml_elements":["RegNum","nSampleNm"]}],"sCompiler":"RDC","nPureOrMixtureDataNumber":3,"dateDateAdded":"9/25/2008","NumValues":[{"PropertyValue":[{"CombinedUncertainty":{"nCombUncertAssessNum":1,"tml_elements":["nCombUncertAssessNum","nCombExpandUncertValue"],"nCombExpandUncertValue":2.6},"nPropValue":135.1,"tml_elements":["nPropNumber","nPropValue","nPropDigits","CombinedUncertainty"],"nPropDigits":4,"nPropNumber":1}],"tml_elements":["VariableValue","PropertyValue"],"VariableValue":[{"nVarDigits":3,"tml_elements":["nVarNumber","nVarValue","nVarDigits"],"nVarNumber":1,"nVarValue":429},{"nVarValue":100,"tml_elements":["nVarNumber","nVarValue","nVarDigits"],"nVarDigits":1,"nVarNumber":2}]}],"Property":[{"eRefStateType":"Reference phase with the same composition at fixed temperature and pressure","nRefPressure":"100","CombinedUncertainty":{"tml_elements":["nCombUncertAssessNum","sCombUncertEvaluator","eCombUncertEvalMethod","nCombUncertLevOfConfid"],"eCombUncertEvalMethod":"Propagation of evaluated standard uncertainties","nCombUncertLevOfConfid":95,"nCombUncertAssessNum":1,"sCombUncertEvaluator":"Data file compiler"},"nPropNumber":1,"PropPhaseID":{"ePropPhase":"Gas","tml_elements":["ePropPhase"]},"tml_elements":["nPropNumber","Property-MethodID","PropPhaseID","ePresentation","eRefStateType","nRefTemp","nRefTempDigits","nRefPressure","nRefPressureDigits","RefPhaseID","CombinedUncertainty"],"nRefTempDigits":5,"RefPhaseID":{"tml_elements":["eRefPhase"],"eRefPhase":"Crystal"},"Property-MethodID":{"tml_elements":["PropertyGroup"],"PropertyGroup":{"HeatCapacityAndDerivedProp":{"ePropName":"Molar enthalpy, kJ/mol","sMethodName":"vacuum sublimation","tml_elements":["ePropName","sMethodName"]},"tml_elements":["HeatCapacityAndDerivedProp"]}},"nRefPressureDigits":1,"nRefTemp":"298.15","ePresentation":"Difference with the reference state, X-X(REF)"}],"eExpPurpose":"Principal objective of the work"},{"eExpPurpose":"Principal objective of the work","Property":[{"Property-MethodID":{"tml_elements":["PropertyGroup"],"PropertyGroup":{"tml_elements":["PhaseTransition"],"PhaseTransition":{"ePropName":"Normal melting temperature, K","sMethodName":"stuart scientific smp2 calibrated apparatus","tml_elements":["ePropName","sMethodName"]}}},"PropPhaseID":{"tml_elements":["ePropPhase"],"ePropPhase":"Crystal"},"nPropNumber":1,"ePresentation":"Direct value, X","tml_elements":["nPropNumber","Property-MethodID","PropPhaseID","ePresentation","CombinedUncertainty"],"CombinedUncertainty":{"eCombUncertEvalMethod":"Propagation of evaluated standard uncertainties","nCombUncertLevOfConfid":95,"tml_elements":["nCombUncertAssessNum","sCombUncertEvaluator","eCombUncertEvalMethod","nCombUncertLevOfConfid"],"sCombUncertEvaluator":"Data file compiler","nCombUncertAssessNum":1}}],"sCompiler":"JFK","nPureOrMixtureDataNumber":4,"dateDateAdded":"9/25/2008","NumValues":[{"VariableValue":[],"tml_elements":["PropertyValue"],"PropertyValue":[{"nPropNumber":1,"nPropDigits":3,"tml_elements":["nPropNumber","nPropValue","nPropDigits","CombinedUncertainty"],"nPropValue":496,"CombinedUncertainty":{"nCombUncertAssessNum":1,"tml_elements":["nCombUncertAssessNum","nCombExpandUncertValue"],"nCombExpandUncertValue":1}}]}],"PhaseID":[{"ePhase":"Crystal","tml_elements":["ePhase"]},{"tml_elements":["ePhase"],"ePhase":"Liquid"},{"ePhase":"Air at 1 atmosphere","tml_elements":["ePhase"]}],"tml_elements":["nPureOrMixtureDataNumber","Component","eExpPurpose","sCompiler","sContributor","dateDateAdded","Property","PhaseID","NumValues"],"Component":[{"nSampleNm":1,"RegNum":{"nOrgNum":6,"tml_elements":["nOrgNum"]},"tml_elements":["RegNum","nSampleNm"]}],"sContributor":"TRC"},{"eExpPurpose":"Principal objective of the work","Property":[{"CombinedUncertainty":{"sCombUncertEvaluator":"Data file compiler","nCombUncertAssessNum":1,"nCombUncertLevOfConfid":95,"eCombUncertEvalMethod":"Propagation of evaluated standard uncertainties","tml_elements":["nCombUncertAssessNum","sCombUncertEvaluator","eCombUncertEvalMethod","nCombUncertLevOfConfid"]},"Property-MethodID":{"PropertyGroup":{"PhaseTransition":{"tml_elements":["ePropName","sMethodName"],"ePropName":"Molar enthalpy of vaporization or sublimation, kJ/mol","sMethodName":"Vacuum drop calorimetry"},"tml_elements":["PhaseTransition"]},"tml_elements":["PropertyGroup"]},"ePresentation":"Direct value, X","tml_elements":["nPropNumber","Property-MethodID","PropPhaseID","ePresentation","CombinedUncertainty"],"PropPhaseID":{"ePropPhase":"Crystal","tml_elements":["ePropPhase"]},"nPropNumber":1}],"nPureOrMixtureDataNumber":5,"dateDateAdded":"9/25/2008","sCompiler":"JFK","NumValues":[{"VariableValue":[{"nVarDigits":5,"tml_elements":["nVarNumber","nVarValue","nVarDigits"],"nVarNumber":1,"nVarValue":298.15}],"PropertyValue":[{"nPropNumber":1,"nPropDigits":4,"tml_elements":["nPropNumber","nPropValue","nPropDigits","CombinedUncertainty"],"nPropValue":116.6,"CombinedUncertainty":{"nCombExpandUncertValue":3,"tml_elements":["nCombUncertAssessNum","nCombExpandUncertValue"],"nCombUncertAssessNum":1}}],"tml_elements":["VariableValue","PropertyValue"]}],"tml_elements":["nPureOrMixtureDataNumber","Component","eExpPurpose","sCompiler","sContributor","dateDateAdded","Property","PhaseID","Variable","NumValues"],"PhaseID":[{"tml_elements":["ePhase"],"ePhase":"Crystal"},{"tml_elements":["ePhase"],"ePhase":"Gas"}],"Component":[{"tml_elements":["RegNum","nSampleNm"],"RegNum":{"tml_elements":["nOrgNum"],"nOrgNum":6},"nSampleNm":1}],"sContributor":"TRC","Variable":[{"tml_elements":["nVarNumber","VariableID","VarPhaseID"],"nVarNumber":1,"VarPhaseID":{"eVarPhase":"Crystal","tml_elements":["eVarPhase"]},"VariableID":{"VariableType":{"tml_elements":["eTemperature"],"eTemperature":"Temperature, K"},"tml_elements":["VariableType"]}}]},{"NumValues":[{"PropertyValue":[{"nPropDigits":3,"nPropNumber":1,"tml_elements":["nPropNumber","nPropValue","nPropDigits","CombinedUncertainty"],"CombinedUncertainty":{"tml_elements":["nCombUncertAssessNum","nCombExpandUncertValue"],"nCombExpandUncertValue":1,"nCombUncertAssessNum":1},"nPropValue":493}],"tml_elements":["PropertyValue"],"VariableValue":[]}],"sCompiler":"JFK","nPureOrMixtureDataNumber":6,"dateDateAdded":"9/25/2008","Property":[{"Property-MethodID":{"tml_elements":["PropertyGroup"],"PropertyGroup":{"tml_elements":["PhaseTransition"],"PhaseTransition":{"tml_elements":["ePropName","sMethodName"],"ePropName":"Normal melting temperature, K","sMethodName":"stuart scientific smp2 calibrated apparatus"}}},"CombinedUncertainty":{"nCombUncertAssessNum":1,"sCombUncertEvaluator":"Data file compiler","tml_elements":["nCombUncertAssessNum","sCombUncertEvaluator","eCombUncertEvalMethod","nCombUncertLevOfConfid"],"nCombUncertLevOfConfid":95,"eCombUncertEvalMethod":"Propagation of evaluated standard uncertainties"},"nPropNumber":1,"PropPhaseID":{"tml_elements":["ePropPhase"],"ePropPhase":"Crystal"},"tml_elements":["nPropNumber","Property-MethodID","PropPhaseID","ePresentation","CombinedUncertainty"],"ePresentation":"Direct value, X"}],"eExpPurpose":"Principal objective of the work","sContributor":"TRC","Component":[{"RegNum":{"tml_elements":["nOrgNum"],"nOrgNum":7},"nSampleNm":1,"tml_elements":["RegNum","nSampleNm"]}],"PhaseID":[{"tml_elements":["ePhase"],"ePhase":"Crystal"},{"ePhase":"Liquid","tml_elements":["ePhase"]},{"tml_elements":["ePhase"],"ePhase":"Air at 1 atmosphere"}],"tml_elements":["nPureOrMixtureDataNumber","Component","eExpPurpose","sCompiler","sContributor","dateDateAdded","Property","PhaseID","NumValues"]},{"Property":[{"ePresentation":"Direct value, X","tml_elements":["nPropNumber","Property-MethodID","PropPhaseID","ePresentation","CombinedUncertainty"],"Property-MethodID":{"tml_elements":["PropertyGroup"],"PropertyGroup":{"tml_elements":["PhaseTransition"],"PhaseTransition":{"tml_elements":["ePropName","sMethodName"],"ePropName":"Molar enthalpy of vaporization or sublimation, kJ/mol","sMethodName":"Unpublished results by the authors"}}},"PropPhaseID":{"tml_elements":["ePropPhase"],"ePropPhase":"Crystal"},"nPropNumber":1,"CombinedUncertainty":{"sCombUncertEvaluator":"Data file compiler","nCombUncertAssessNum":1,"eCombUncertEvalMethod":"Propagation of evaluated standard uncertainties","nCombUncertLevOfConfid":95,"tml_elements":["nCombUncertAssessNum","sCombUncertEvaluator","eCombUncertEvalMethod","nCombUncertLevOfConfid"]}}],"eExpPurpose":"Principal objective of the work","nPureOrMixtureDataNumber":7,"dateDateAdded":"9/25/2008","sCompiler":"RDC","NumValues":[{"tml_elements":["VariableValue","PropertyValue"],"PropertyValue":[{"nPropValue":112.8,"CombinedUncertainty":{"tml_elements":["nCombUncertAssessNum","nCombExpandUncertValue"],"nCombExpandUncertValue":2,"nCombUncertAssessNum":1},"tml_elements":["nPropNumber","nPropValue","nPropDigits","CombinedUncertainty"],"nPropDigits":4,"nPropNumber":1}],"VariableValue":[{"nVarValue":298.15,"nVarDigits":5,"tml_elements":["nVarNumber","nVarValue","nVarDigits"],"nVarNumber":1}]}],"tml_elements":["nPureOrMixtureDataNumber","Component","eExpPurpose","sCompiler","sContributor","dateDateAdded","Property","PhaseID","Variable","NumValues"],"PhaseID":[{"tml_elements":["ePhase"],"ePhase":"Crystal"},{"tml_elements":["ePhase"],"ePhase":"Gas"}],"Component":[{"tml_elements":["RegNum","nSampleNm"],"RegNum":{"nOrgNum":7,"tml_elements":["nOrgNum"]},"nSampleNm":1}],"sContributor":"TRC","Variable":[{"VariableID":{"VariableType":{"eTemperature":"Temperature, K","tml_elements":["eTemperature"]},"tml_elements":["VariableType"]},"VarPhaseID":{"eVarPhase":"Crystal","tml_elements":["eVarPhase"]},"nVarNumber":1,"tml_elements":["nVarNumber","VariableID","VarPhaseID"]}]},{"sCompiler":"RDC","dateDateAdded":"9/25/2008","nPureOrMixtureDataNumber":8,"NumValues":[{"PropertyValue":[{"CombinedUncertainty":{"nCombExpandUncertValue":1.8,"tml_elements":["nCombUncertAssessNum","nCombExpandUncertValue"],"nCombUncertAssessNum":1},"nPropValue":141.5,"tml_elements":["nPropNumber","nPropValue","nPropDigits","CombinedUncertainty"],"nPropDigits":4,"nPropNumber":1}],"tml_elements":["VariableValue","PropertyValue"],"VariableValue":[{"nVarDigits":3,"tml_elements":["nVarNumber","nVarValue","nVarDigits"],"nVarNumber":1,"nVarValue":452},{"tml_elements":["nVarNumber","nVarValue","nVarDigits"],"nVarDigits":1,"nVarNumber":2,"nVarValue":100}]}],"eExpPurpose":"Principal objective of the work","Property":[{"ePresentation":"Difference with the reference state, X-X(REF)","tml_elements":["nPropNumber","Property-MethodID","PropPhaseID","ePresentation","eRefStateType","nRefTemp","nRefTempDigits","nRefPressure","nRefPressureDigits","RefPhaseID","CombinedUncertainty"],"PropPhaseID":{"ePropPhase":"Gas","tml_elements":["ePropPhase"]},"nPropNumber":1,"nRefTempDigits":5,"nRefPressure":"100","eRefStateType":"Reference phase with the same composition at fixed temperature and pressure","nRefPressureDigits":1,"Property-MethodID":{"PropertyGroup":{"tml_elements":["HeatCapacityAndDerivedProp"],"HeatCapacityAndDerivedProp":{"ePropName":"Molar enthalpy, kJ/mol","sMethodName":"vacuum sublimation","tml_elements":["ePropName","sMethodName"]}},"tml_elements":["PropertyGroup"]},"RefPhaseID":{"tml_elements":["eRefPhase"],"eRefPhase":"Crystal"},"CombinedUncertainty":{"eCombUncertEvalMethod":"Propagation of evaluated standard uncertainties","nCombUncertLevOfConfid":95,"tml_elements":["nCombUncertAssessNum","sCombUncertEvaluator","eCombUncertEvalMethod","nCombUncertLevOfConfid"],"sCombUncertEvaluator":"Data file compiler","nCombUncertAssessNum":1},"nRefTemp":"298.15"}],"Variable":[{"VarPhaseID":{"tml_elements":["eVarPhase"],"eVarPhase":"Gas"},"nVarNumber":1,"tml_elements":["nVarNumber","VariableID","VarPhaseID"],"VariableID":{"VariableType":{"tml_elements":["eTemperature"],"eTemperature":"Temperature, K"},"tml_elements":["VariableType"]}},{"nVarNumber":2,"VarPhaseID":{"tml_elements":["eVarPhase"],"eVarPhase":"Gas"},"tml_elements":["nVarNumber","VariableID","VarPhaseID"],"VariableID":{"VariableType":{"tml_elements":["ePressure"],"ePressure":"Pressure, kPa"},"tml_elements":["VariableType"]}}],"sContributor":"TRC","PhaseID":[{"tml_elements":["ePhase"],"ePhase":"Gas"}],"tml_elements":["nPureOrMixtureDataNumber","Component","eExpPurpose","sCompiler","sContributor","dateDateAdded","Property","PhaseID","Variable","NumValues"],"Component":[{"tml_elements":["RegNum","nSampleNm"],"RegNum":{"nOrgNum":7,"tml_elements":["nOrgNum"]},"nSampleNm":1}]}],"ReactionData":[{"nReactionDataNumber":1,"sContributor":"TRC","Participant":[{"RegNum":{"nOrgNum":6,"tml_elements":["nOrgNum"]},"nSampleNm":1,"nStoichiometricCoef":"-1","ePhase":"Crystal","tml_elements":["RegNum","nSampleNm","nStoichiometricCoef","ePhase"]},{"ePhase":"Ideal gas","tml_elements":["RegNum","nStoichiometricCoef","ePhase"],"nStoichiometricCoef":"8","RegNum":{"tml_elements":["nOrgNum"],"nOrgNum":1}},{"ePhase":"Ideal gas","tml_elements":["RegNum","nStoichiometricCoef","ePhase"],"RegNum":{"nOrgNum":2,"tml_elements":["nOrgNum"]},"nStoichiometricCoef":".5"},{"tml_elements":["RegNum","nStoichiometricCoef","ePhase"],"ePhase":"Liquid","nStoichiometricCoef":"2.5","RegNum":{"tml_elements":["nOrgNum"],"nOrgNum":3}},{"nStoichiometricCoef":"-8.25","RegNum":{"tml_elements":["nOrgNum"],"nOrgNum":4},"tml_elements":["RegNum","nStoichiometricCoef","ePhase"],"ePhase":"Ideal gas"}],"tml_elements":["nReactionDataNumber","Participant","eExpPurpose","sCompiler","sContributor","dateDateAdded","eReactionType","Property","NumValues"],"eReactionType":"Combustion with oxygen","dateDateAdded":"9/25/2008","sCompiler":"JFK","NumValues":[{"tml_elements":["PropertyValue"],"PropertyValue":[{"nPropValue":-24421.4,"CombinedUncertainty":{"nCombUncertAssessNum":1,"nCombExpandUncertValue":7.2,"tml_elements":["nCombUncertAssessNum","nCombExpandUncertValue"]},"nPropNumber":1,"nPropDigits":6,"tml_elements":["nPropNumber","nPropValue","nPropDigits","CombinedUncertainty"]}],"VariableValue":[]}],"eExpPurpose":"Principal objective of the work","Property":[{"nPressureDigits":6,"nPressure-kPa":"101.325","CombinedUncertainty":{"nCombUncertAssessNum":1,"sCombUncertEvaluator":"Data file compiler","tml_elements":["nCombUncertAssessNum","sCombUncertEvaluator","eCombUncertEvalMethod","nCombUncertLevOfConfid"],"eCombUncertEvalMethod":"Propagation of evaluated standard uncertainties","nCombUncertLevOfConfid":95},"nTemperature-K":"298.15","tml_elements":["nPropNumber","Property-MethodID","nTemperature-K","nTemperatureDigits","nPressure-kPa","nPressureDigits","CombinedUncertainty"],"nTemperatureDigits":5,"nPropNumber":1,"Property-MethodID":{"tml_elements":["PropertyGroup"],"PropertyGroup":{"tml_elements":["ReactionStateChangeProp"],"ReactionStateChangeProp":{"ePropName":"Specific internal energy of reaction at constant volume, J/g","eMethodName":"Static bomb calorimetry","tml_elements":["ePropName","eMethodName"]}}}}]},{"nReactionDataNumber":2,"sContributor":"TRC","tml_elements":["nReactionDataNumber","Participant","eExpPurpose","sCompiler","sContributor","dateDateAdded","eReactionType","Property","NumValues"],"Participant":[{"nSampleNm":1,"nStoichiometricCoef":"-1","RegNum":{"tml_elements":["nOrgNum"],"nOrgNum":7},"ePhase":"Crystal","tml_elements":["RegNum","nSampleNm","nStoichiometricCoef","ePhase"]},{"nStoichiometricCoef":"8","RegNum":{"tml_elements":["nOrgNum"],"nOrgNum":1},"ePhase":"Ideal gas","tml_elements":["RegNum","nStoichiometricCoef","ePhase"]},{"tml_elements":["RegNum","nStoichiometricCoef","ePhase"],"ePhase":"Ideal gas","nStoichiometricCoef":".5","RegNum":{"tml_elements":["nOrgNum"],"nOrgNum":2}},{"nStoichiometricCoef":"2.5","RegNum":{"tml_elements":["nOrgNum"],"nOrgNum":3},"ePhase":"Liquid","tml_elements":["RegNum","nStoichiometricCoef","ePhase"]},{"nStoichiometricCoef":"-8.25","RegNum":{"nOrgNum":4,"tml_elements":["nOrgNum"]},"tml_elements":["RegNum","nStoichiometricCoef","ePhase"],"ePhase":"Ideal gas"}],"eReactionType":"Combustion with oxygen","dateDateAdded":"9/25/2008","sCompiler":"JFK","NumValues":[{"tml_elements":["PropertyValue"],"PropertyValue":[{"nPropValue":-24423.2,"CombinedUncertainty":{"nCombExpandUncertValue":4.7,"tml_elements":["nCombUncertAssessNum","nCombExpandUncertValue"],"nCombUncertAssessNum":1},"tml_elements":["nPropNumber","nPropValue","nPropDigits","CombinedUncertainty"],"nPropNumber":1,"nPropDigits":6}],"VariableValue":[]}],"Property":[{"Property-MethodID":{"PropertyGroup":{"ReactionStateChangeProp":{"tml_elements":["ePropName","eMethodName"],"eMethodName":"Static bomb calorimetry","ePropName":"Specific internal energy of reaction at constant volume, J/g"},"tml_elements":["ReactionStateChangeProp"]},"tml_elements":["PropertyGroup"]},"nTemperatureDigits":5,"CombinedUncertainty":{"tml_elements":["nCombUncertAssessNum","sCombUncertEvaluator","eCombUncertEvalMethod","nCombUncertLevOfConfid"],"eCombUncertEvalMethod":"Propagation of evaluated standard uncertainties","nCombUncertLevOfConfid":95,"nCombUncertAssessNum":1,"sCombUncertEvaluator":"Data file compiler"},"nTemperature-K":"298.15","nPressure-kPa":"101.325","nPressureDigits":6,"nPropNumber":1,"tml_elements":["nPropNumber","Property-MethodID","nTemperature-K","nTemperatureDigits","nPressure-kPa","nPressureDigits","CombinedUncertainty"]}],"eExpPurpose":"Principal objective of the work"},{"dateDateAdded":"9/25/2008","sCompiler":"JFK","NumValues":[{"PropertyValue":[{"tml_elements":["nPropNumber","nPropValue","nPropDigits","CombinedUncertainty"],"nPropDigits":6,"nPropNumber":1,"nPropValue":-24454.5,"CombinedUncertainty":{"nCombUncertAssessNum":1,"nCombExpandUncertValue":6.9,"tml_elements":["nCombUncertAssessNum","nCombExpandUncertValue"]}}],"tml_elements":["PropertyValue"],"VariableValue":[]}],"Property":[{"nTemperature-K":"298.15","CombinedUncertainty":{"nCombUncertAssessNum":1,"sCombUncertEvaluator":"Data file compiler","tml_elements":["nCombUncertAssessNum","sCombUncertEvaluator","eCombUncertEvalMethod","nCombUncertLevOfConfid"],"eCombUncertEvalMethod":"Propagation of evaluated standard uncertainties","nCombUncertLevOfConfid":95},"nPressureDigits":6,"nPressure-kPa":"101.325","nPropNumber":1,"Property-MethodID":{"tml_elements":["PropertyGroup"],"PropertyGroup":{"ReactionStateChangeProp":{"tml_elements":["ePropName","eMethodName"],"ePropName":"Specific internal energy of reaction at constant volume, J/g","eMethodName":"Static bomb calorimetry"},"tml_elements":["ReactionStateChangeProp"]}},"tml_elements":["nPropNumber","Property-MethodID","nTemperature-K","nTemperatureDigits","nPressure-kPa","nPressureDigits","CombinedUncertainty"],"nTemperatureDigits":5}],"eExpPurpose":"Principal objective of the work","nReactionDataNumber":3,"sContributor":"TRC","Participant":[{"nStoichiometricCoef":"-1","nSampleNm":1,"RegNum":{"tml_elements":["nOrgNum"],"nOrgNum":5},"tml_elements":["RegNum","nSampleNm","nStoichiometricCoef","ePhase"],"ePhase":"Crystal"},{"nStoichiometricCoef":"8","RegNum":{"nOrgNum":1,"tml_elements":["nOrgNum"]},"ePhase":"Ideal gas","tml_elements":["RegNum","nStoichiometricCoef","ePhase"]},{"RegNum":{"tml_elements":["nOrgNum"],"nOrgNum":2},"nStoichiometricCoef":".5","tml_elements":["RegNum","nStoichiometricCoef","ePhase"],"ePhase":"Ideal gas"},{"tml_elements":["RegNum","nStoichiometricCoef","ePhase"],"ePhase":"Liquid","nStoichiometricCoef":"2.5","RegNum":{"nOrgNum":3,"tml_elements":["nOrgNum"]}},{"tml_elements":["RegNum","nStoichiometricCoef","ePhase"],"ePhase":"Ideal gas","RegNum":{"nOrgNum":4,"tml_elements":["nOrgNum"]},"nStoichiometricCoef":"-8.25"}],"tml_elements":["nReactionDataNumber","Participant","eExpPurpose","sCompiler","sContributor","dateDateAdded","eReactionType","Property","NumValues"],"eReactionType":"Combustion with oxygen"}]}