{"ReactionData":[{"eExpPurpose":"Principal objective of the work","Property":[{"nTemperatureDigits":5,"Property-MethodID":{"PropertyGroup":{"tml_elements":["ReactionStateChangeProp"],"ReactionStateChangeProp":{"ePropName":"Specific internal energy of reaction at constant volume, J/g","eMethodName":"Static bomb calorimetry","tml_elements":["ePropName","eMethodName"]}},"tml_elements":["PropertyGroup"]},"nPressure-kPa":"100","nPressureDigits":1,"nTemperature-K":"298.15","CombinedUncertainty":{"eCombUncertEvalMethod":"Propagation of evaluated standard uncertainties","nCombUncertLevOfConfid":95,"tml_elements":["nCombUncertAssessNum","sCombUncertEvaluator","eCombUncertEvalMethod","nCombUncertLevOfConfid"],"sCombUncertEvaluator":"Data file compiler","nCombUncertAssessNum":1},"tml_elements":["nPropNumber","Property-MethodID","nTemperature-K","nTemperatureDigits","nPressure-kPa","nPressureDigits","CombinedUncertainty"],"nPropNumber":1}],"sCompiler":"JCE","dateDateAdded":"7/27/2006","NumValues":[{"PropertyValue":[{"tml_elements":["nPropNumber","nPropValue","nPropDigits","CombinedUncertainty"],"nPropDigits":6,"nPropNumber":1,"nPropValue":-42125.8,"CombinedUncertainty":{"nCombUncertAssessNum":1,"nCombExpandUncertValue":9.6,"tml_elements":["nCombUncertAssessNum","nCombExpandUncertValue"]}}],"tml_elements":["PropertyValue"],"VariableValue":[]}],"eReactionType":"Combustion with oxygen","tml_elements":["nReactionDataNumber","Participant","eExpPurpose","sCompiler","sContributor","dateDateAdded","eReactionType","Property","NumValues"],"Participant":[{"tml_elements":["RegNum","nSampleNm","nStoichiometricCoef","ePhase"],"ePhase":"Liquid","RegNum":{"nOrgNum":5,"tml_elements":["nOrgNum"]},"nStoichiometricCoef":"-1","nSampleNm":1},{"nStoichiometricCoef":"7","RegNum":{"tml_elements":["nOrgNum"],"nOrgNum":1},"ePhase":"Ideal gas","tml_elements":["RegNum","nStoichiometricCoef","ePhase"]},{"tml_elements":["RegNum","nStoichiometricCoef","ePhase"],"ePhase":"Ideal gas","RegNum":{"tml_elements":["nOrgNum"],"nOrgNum":2},"nStoichiometricCoef":".5"},{"ePhase":"Liquid","tml_elements":["RegNum","nStoichiometricCoef","ePhase"],"RegNum":{"tml_elements":["nOrgNum"],"nOrgNum":3},"nStoichiometricCoef":"7.5"},{"tml_elements":["RegNum","nStoichiometricCoef","ePhase"],"ePhase":"Ideal gas","RegNum":{"nOrgNum":4,"tml_elements":["nOrgNum"]},"nStoichiometricCoef":"-10.75"}],"nReactionDataNumber":1,"sContributor":"JCE"},{"Property":[{"Property-MethodID":{"tml_elements":["PropertyGroup"],"PropertyGroup":{"ReactionStateChangeProp":{"ePropName":"Specific internal energy of reaction at constant volume, J/g","eMethodName":"Static bomb calorimetry","tml_elements":["ePropName","eMethodName"]},"tml_elements":["ReactionStateChangeProp"]}},"nTemperatureDigits":5,"nTemperature-K":"298.15","CombinedUncertainty":{"nCombUncertLevOfConfid":95,"eCombUncertEvalMethod":"Propagation of evaluated standard uncertainties","tml_elements":["nCombUncertAssessNum","sCombUncertEvaluator","eCombUncertEvalMethod","nCombUncertLevOfConfid"],"sCombUncertEvaluator":"Data file compiler","nCombUncertAssessNum":1},"nPressureDigits":1,"nPressure-kPa":"100","nPropNumber":1,"tml_elements":["nPropNumber","Property-MethodID","nTemperature-K","nTemperatureDigits","nPressure-kPa","nPressureDigits","CombinedUncertainty"]}],"eExpPurpose":"Principal objective of the work","NumValues":[{"PropertyValue":[{"nPropDigits":6,"nPropNumber":1,"tml_elements":["nPropNumber","nPropValue","nPropDigits","CombinedUncertainty"],"CombinedUncertainty":{"nCombUncertAssessNum":1,"tml_elements":["nCombUncertAssessNum","nCombExpandUncertValue"],"nCombExpandUncertValue":6.9},"nPropValue":-41803.2}],"tml_elements":["PropertyValue"],"VariableValue":[]}],"sCompiler":"JCE","dateDateAdded":"7/27/2006","eReactionType":"Combustion with oxygen","Participant":[{"nStoichiometricCoef":"-1","nSampleNm":1,"RegNum":{"nOrgNum":6,"tml_elements":["nOrgNum"]},"tml_elements":["RegNum","nSampleNm","nStoichiometricCoef","ePhase"],"ePhase":"Liquid"},{"RegNum":{"nOrgNum":1,"tml_elements":["nOrgNum"]},"nStoichiometricCoef":"7","ePhase":"Ideal gas","tml_elements":["RegNum","nStoichiometricCoef","ePhase"]},{"RegNum":{"nOrgNum":2,"tml_elements":["nOrgNum"]},"nStoichiometricCoef":".5","tml_elements":["RegNum","nStoichiometricCoef","ePhase"],"ePhase":"Ideal gas"},{"tml_elements":["RegNum","nStoichiometricCoef","ePhase"],"ePhase":"Liquid","RegNum":{"tml_elements":["nOrgNum"],"nOrgNum":3},"nStoichiometricCoef":"7.5"},{"tml_elements":["RegNum","nStoichiometricCoef","ePhase"],"ePhase":"Ideal gas","RegNum":{"tml_elements":["nOrgNum"],"nOrgNum":4},"nStoichiometricCoef":"-10.75"}],"tml_elements":["nReactionDataNumber","Participant","eExpPurpose","sCompiler","sContributor","dateDateAdded","eReactionType","Property","NumValues"],"sContributor":"JCE","nReactionDataNumber":2}],"PureOrMixtureData":[{"Variable":[{"VariableID":{"VariableType":{"tml_elements":["eTemperature"],"eTemperature":"Temperature, K"},"tml_elements":["VariableType"]},"tml_elements":["nVarNumber","VariableID","VarPhaseID"],"nVarNumber":1,"VarPhaseID":{"eVarPhase":"Gas","tml_elements":["eVarPhase"]}},{"tml_elements":["nVarNumber","VariableID","VarPhaseID"],"nVarNumber":2,"VarPhaseID":{"tml_elements":["eVarPhase"],"eVarPhase":"Gas"},"VariableID":{"VariableType":{"tml_elements":["ePressure"],"ePressure":"Pressure, kPa"},"tml_elements":["VariableType"]}}],"sContributor":"JCE","PhaseID":[{"tml_elements":["ePhase"],"ePhase":"Gas"}],"tml_elements":["nPureOrMixtureDataNumber","Component","eExpPurpose","sCompiler","sContributor","dateDateAdded","Property","PhaseID","Variable","NumValues"],"Component":[{"tml_elements":["RegNum","nSampleNm"],"RegNum":{"tml_elements":["nOrgNum"],"nOrgNum":5},"nSampleNm":1}],"sCompiler":"JCE","nPureOrMixtureDataNumber":1,"dateDateAdded":"7/27/2006","NumValues":[{"tml_elements":["VariableValue","PropertyValue"],"PropertyValue":[{"CombinedUncertainty":{"nCombUncertAssessNum":1,"nCombExpandUncertValue":0.32,"tml_elements":["nCombUncertAssessNum","nCombExpandUncertValue"]},"nPropValue":45.01,"tml_elements":["nPropNumber","nPropValue","nPropDigits","CombinedUncertainty"],"nPropDigits":4,"nPropNumber":1}],"VariableValue":[{"nVarNumber":1,"tml_elements":["nVarNumber","nVarValue","nVarDigits"],"nVarDigits":4,"nVarValue":334.3},{"tml_elements":["nVarNumber","nVarValue","nVarDigits"],"nVarDigits":1,"nVarNumber":2,"nVarValue":100}]}],"eExpPurpose":"Principal objective of the work","Property":[{"ePresentation":"Difference with the reference state, X-X(REF)","Property-MethodID":{"tml_elements":["PropertyGroup"],"PropertyGroup":{"HeatCapacityAndDerivedProp":{"tml_elements":["ePropName","sMethodName"],"ePropName":"Molar enthalpy, kJ/mol","sMethodName":"Calvet microcalorimetry"},"tml_elements":["HeatCapacityAndDerivedProp"]}},"RefPhaseID":{"eRefPhase":"Liquid","tml_elements":["eRefPhase"]},"nRefPressureDigits":1,"nRefTemp":"298.15","nPropNumber":1,"PropPhaseID":{"ePropPhase":"Gas","tml_elements":["ePropPhase"]},"tml_elements":["nPropNumber","Property-MethodID","PropPhaseID","ePresentation","eRefStateType","nRefTemp","nRefTempDigits","nRefPressure","nRefPressureDigits","RefPhaseID","CombinedUncertainty"],"nRefTempDigits":5,"eRefStateType":"Reference phase with the same composition at fixed temperature and pressure","nRefPressure":"100","CombinedUncertainty":{"nCombUncertAssessNum":1,"sCombUncertEvaluator":"Data file compiler","tml_elements":["nCombUncertAssessNum","sCombUncertEvaluator","eCombUncertEvalMethod","nCombUncertLevOfConfid"],"eCombUncertEvalMethod":"Propagation of evaluated standard uncertainties","nCombUncertLevOfConfid":95}}]},{"tml_elements":["nPureOrMixtureDataNumber","Component","eExpPurpose","sCompiler","sContributor","dateDateAdded","Property","PhaseID","Variable","NumValues"],"PhaseID":[{"ePhase":"Gas","tml_elements":["ePhase"]}],"Component":[{"tml_elements":["RegNum","nSampleNm"],"RegNum":{"nOrgNum":6,"tml_elements":["nOrgNum"]},"nSampleNm":1}],"sContributor":"JCE","Variable":[{"VariableID":{"VariableType":{"tml_elements":["eTemperature"],"eTemperature":"Temperature, K"},"tml_elements":["VariableType"]},"nVarNumber":1,"VarPhaseID":{"tml_elements":["eVarPhase"],"eVarPhase":"Gas"},"tml_elements":["nVarNumber","VariableID","VarPhaseID"]},{"VariableID":{"VariableType":{"tml_elements":["ePressure"],"ePressure":"Pressure, kPa"},"tml_elements":["VariableType"]},"tml_elements":["nVarNumber","VariableID","VarPhaseID"],"nVarNumber":2,"VarPhaseID":{"eVarPhase":"Gas","tml_elements":["eVarPhase"]}}],"Property":[{"RefPhaseID":{"tml_elements":["eRefPhase"],"eRefPhase":"Liquid"},"Property-MethodID":{"PropertyGroup":{"HeatCapacityAndDerivedProp":{"tml_elements":["ePropName","sMethodName"],"ePropName":"Molar enthalpy, kJ/mol","sMethodName":"Calvet microcalorimetry"},"tml_elements":["HeatCapacityAndDerivedProp"]},"tml_elements":["PropertyGroup"]},"nRefPressureDigits":1,"nRefTemp":"298.15","ePresentation":"Difference with the reference state, X-X(REF)","nRefPressure":"100","eRefStateType":"Reference phase with the same composition at fixed temperature and pressure","CombinedUncertainty":{"sCombUncertEvaluator":"Data file compiler","nCombUncertAssessNum":1,"nCombUncertLevOfConfid":95,"eCombUncertEvalMethod":"Propagation of evaluated standard uncertainties","tml_elements":["nCombUncertAssessNum","sCombUncertEvaluator","eCombUncertEvalMethod","nCombUncertLevOfConfid"]},"PropPhaseID":{"tml_elements":["ePropPhase"],"ePropPhase":"Gas"},"nPropNumber":1,"tml_elements":["nPropNumber","Property-MethodID","PropPhaseID","ePresentation","eRefStateType","nRefTemp","nRefTempDigits","nRefPressure","nRefPressureDigits","RefPhaseID","CombinedUncertainty"],"nRefTempDigits":5}],"eExpPurpose":"Principal objective of the work","dateDateAdded":"7/27/2006","nPureOrMixtureDataNumber":2,"sCompiler":"JCE","NumValues":[{"tml_elements":["VariableValue","PropertyValue"],"PropertyValue":[{"CombinedUncertainty":{"nCombExpandUncertValue":0.6,"tml_elements":["nCombUncertAssessNum","nCombExpandUncertValue"],"nCombUncertAssessNum":1},"nPropValue":54.39,"nPropDigits":4,"nPropNumber":1,"tml_elements":["nPropNumber","nPropValue","nPropDigits","CombinedUncertainty"]}],"VariableValue":[{"nVarValue":334.3,"nVarNumber":1,"nVarDigits":4,"tml_elements":["nVarNumber","nVarValue","nVarDigits"]},{"nVarDigits":1,"tml_elements":["nVarNumber","nVarValue","nVarDigits"],"nVarNumber":2,"nVarValue":100}]}]}],"tml_elements":["Version","Citation","Compound","PureOrMixtureData","ReactionData"],"Compound":[{"sStandardInChIKey":"CURLTUGMZLYLDI-UHFFFAOYSA-N","RegNum":{"nOrgNum":1,"tml_elements":["nOrgNum"]},"sStandardInChI":"InChI=1S/CO2/c2-1-3","sCommonName":["carbon dioxide"],"tml_elements":["RegNum","sStandardInChI","sStandardInChIKey","sCommonName","sFormulaMolec"],"sFormulaMolec":"CO2"},{"sFormulaMolec":"N2","sCommonName":["nitrogen"],"tml_elements":["RegNum","sStandardInChI","sStandardInChIKey","sCommonName","sFormulaMolec"],"sStandardInChIKey":"IJGRMHOSHXDMSA-UHFFFAOYSA-N","RegNum":{"tml_elements":["nOrgNum"],"nOrgNum":2},"sStandardInChI":"InChI=1S/N2/c1-2"},{"RegNum":{"nOrgNum":3,"tml_elements":["nOrgNum"]},"sStandardInChI":"InChI=1S/H2O/h1H2","tml_elements":["RegNum","sStandardInChI","sStandardInChIKey","sCommonName","sFormulaMolec"],"sCommonName":["water"],"sStandardInChIKey":"XLYOFNOQVPJJNP-UHFFFAOYSA-N","sFormulaMolec":"H2O"},{"sCommonName":["oxygen"],"tml_elements":["RegNum","sStandardInChI","sStandardInChIKey","sCommonName","sFormulaMolec"],"sFormulaMolec":"O2","sStandardInChIKey":"MYMOFIZGZYHOMD-UHFFFAOYSA-N","sStandardInChI":"InChI=1S/O2/c1-2","RegNum":{"nOrgNum":4,"tml_elements":["nOrgNum"]}},{"sStandardInChIKey":"HTLZVHNRZJPSMI-UHFFFAOYSA-N","RegNum":{"nOrgNum":5,"tml_elements":["nOrgNum"]},"sStandardInChI":"InChI=1S/C7H15N/c1-2-8-6-4-3-5-7-8/h2-7H2,1H3","Sample":[{"tml_elements":["nSampleNm","eSource","purity"],"purity":[{"tml_elements":["nStep","ePurifMethod"],"nStep":1,"ePurifMethod":["Fractional distillation"]},{"nStep":2,"nPurityMolDigits":5,"nPurityMol":99.811,"tml_elements":["nStep","nPurityMol","nPurityMolDigits","eAnalMeth"],"eAnalMeth":["CO2 yield in combustion products"]}],"nSampleNm":1,"eSource":"Commercial source"}],"sCommonName":["1-ethylpiperidine","N-ethylpiperidine","piperidine, N-ethyl-"],"tml_elements":["RegNum","sStandardInChI","sStandardInChIKey","sCommonName","sFormulaMolec","Sample"],"sFormulaMolec":"C7H15N"},{"sCommonName":[".alpha.-ethylpiperidine","2-ethylpiperidine","piperidine, 2-ethyl-"],"Sample":[{"eSource":"Commercial source","nSampleNm":1,"purity":[{"ePurifMethod":["Fractional distillation"],"nStep":1,"tml_elements":["nStep","ePurifMethod"]},{"eAnalMeth":["CO2 yield in combustion products"],"tml_elements":["nStep","nPurityMol","nPurityMolDigits","eAnalMeth"],"nPurityMol":99.983,"nStep":2,"nPurityMolDigits":5}],"tml_elements":["nSampleNm","eSource","purity"]}],"tml_elements":["RegNum","sStandardInChI","sStandardInChIKey","sCommonName","sFormulaMolec","Sample"],"sFormulaMolec":"C7H15N","sStandardInChIKey":"QBBKKFZGCDJDQK-UHFFFAOYSA-N","RegNum":{"tml_elements":["nOrgNum"],"nOrgNum":6},"sStandardInChI":"InChI=1S/C7H15N/c1-2-7-5-3-4-6-8-7/h7-8H,2-6H2,1H3"}],"THERMOML_MD5_CHECKSUM":"863aa59838520d5d35afc94bc2f41ef6","Version":{"nVersionMinor":0,"nVersionMajor":2,"tml_elements":["nVersionMajor","nVersionMinor"]},"Citation":{"eType":"journal","sVol":"38","sPage":"1072-1078","sPubName":"J. Chem. Thermodyn.","yrPubYr":"2006","dateCit":"2020-09-29","sIDNum":"8","sAuthor":["Ribeiro da Silva, M. A. V.[Manuel A. V.]","Cabral, J. I. T. A.[Joana I. T. A.]","Gomes, J. R. B.[Jose R.B.]"],"sKeyword":["Combustion calorimetry","Calvet microcalorimetry","Enthalpy of combustion","Enthalpy of sublimation","Enthalpy of formation","1-Ethylpiperidine","2-Ethylpiperidine","3-Ethylpiperidine","4-Ethylpiperidine"],"tml_elements":["TRCRefID","eType","eSourceType","sAuthor","sPubName","yrPubYr","dateCit","sTitle","sAbstract","sKeyword","sDOI","sIDNum","sVol","sPage"],"sDOI":"10.1016/j.jct.2005.11.004","sTitle":"Experimental and computational study on the thermochemistry of ethylpiperidines","TRCRefID":{"tml_elements":["yrYrPub","sAuthor1","sAuthor2","nAuthorn"],"nAuthorn":"2","sAuthor1":"rib","sAuthor2":"cab","yrYrPub":"2006"},"sAbstract":"The standard (p= 0.1 MPa) massic energies of combustion in oxygen of 1-ethylpiperidine and 2-ethylpiperidine, both in the liquid phase, were measured at T = 298.15 K by static bomb calorimetry. These values were used to derive the standard molar enthalpies of combustion and the standard molar enthalpies of formation, in the condensed phase, for these compounds. Further, the standard molar enthalpies of vaporization, at T = 298.15 K, of these two ethylpiperidine isomers were determined by Calvet microcalorimetry. The combustion calorimetry results together with those from the Calvet microcalorimetry, were used to derive the standard molar enthalpies of formation, at T = 298.15 K, in the gaseous phase. In parallel, theoretical calculations have been carried out for all the ethylpiperidine isomers, enabling the estimation of gas-phase enthalpies of formation for these compounds. The comparison with the present experimental data is very good and, thus, supports the quality of the results calculated for the 3-ethyl and 4-ethylpiperidines.","eSourceType":"Original"}}