{"Citation":{"eSourceType":"Original","tml_elements":["TRCRefID","eType","eSourceType","sAuthor","sPubName","yrPubYr","dateCit","sTitle","sAbstract","sKeyword","sDOI","sVol","sPage"],"sKeyword":["Standard molar enthalpy of formation","Standard molar enthalpy of vaporization","Calvet microcalorimetry","1-Alkylimidazole","Ionic liquids","Thermochemistry","Ab initio calculations"],"sAuthor":["Vitorino, J.[Joana]","Agapito, F.[Filipe]","Bernardes, C. E. S.[Carlos E. S.]","Minas da Piedade, M. E.[Manuel E.]"],"sAbstract":"The standard molar enthalpies of vaporization, DvapHo m, of 1-ethyl, 1-butyl, and 1-octylimidazole, at T = 298.15 K, were measured by Calvet-drop microcalorimetry. The values determined, together with results of high-level ab initio calculations (W1-F12 and CCSD(T)-F12) and published DvapHo m data were used to obtain the enthalpies of formation in the gaseous and liquid states of 1-alkylimidazole compounds ranging from 1-methylimidazole to 1-dodecylimidazole. Structure-energetics trends related to the alkyl chain length are discussed.","TRCRefID":{"yrYrPub":"2015","sAuthor1":"vit","sAuthor2":"aga","nAuthorn":"0","tml_elements":["yrYrPub","sAuthor1","sAuthor2","nAuthorn"]},"sTitle":"Thermochemistry of 1-alkylimidazoles","sDOI":"10.1016/j.jct.2014.08.020","yrPubYr":"2015","sPubName":"J. Chem. Thermodyn.","dateCit":"2020-09-29","eType":"journal","sVol":"80","sPage":"59-64"},"Version":{"nVersionMinor":0,"nVersionMajor":2,"tml_elements":["nVersionMajor","nVersionMinor"]},"tml_elements":["Version","Citation","Compound","PureOrMixtureData"],"PureOrMixtureData":[{"sContributor":"TRC","tml_elements":["nPureOrMixtureDataNumber","Component","eExpPurpose","sCompiler","sContributor","dateDateAdded","Property","PhaseID","Variable","NumValues"],"PhaseID":[{"ePhase":"Liquid","tml_elements":["ePhase"]},{"tml_elements":["ePhase"],"ePhase":"Gas"}],"NumValues":[{"tml_elements":["VariableValue","PropertyValue"],"PropertyValue":[{"tml_elements":["nPropNumber","nPropValue","nPropDigits","CombinedUncertainty"],"nPropDigits":5,"nPropNumber":1,"nPropValue":57.533142945,"CombinedUncertainty":{"nCombUncertAssessNum":1,"tml_elements":["nCombUncertAssessNum","nCombExpandUncertValue"],"nCombExpandUncertValue":0.98822154}}],"VariableValue":[{"nVarValue":298.15,"nVarNumber":1,"nVarDigits":5,"tml_elements":["nVarNumber","nVarValue","nVarDigits"]}]}],"dateDateAdded":"1/29/2015","nPureOrMixtureDataNumber":1,"sCompiler":"AB","Property":[{"nPropNumber":1,"PropPhaseID":{"ePropPhase":"Liquid","tml_elements":["ePropPhase"]},"tml_elements":["nPropNumber","Property-MethodID","PropPhaseID","ePresentation","CombinedUncertainty"],"ePresentation":"Direct value, X","CombinedUncertainty":{"tml_elements":["nCombUncertAssessNum","sCombUncertEvaluator","eCombUncertEvalMethod","nCombUncertLevOfConfid"],"nCombUncertLevOfConfid":95,"eCombUncertEvalMethod":"Propagation of evaluated standard uncertainties","nCombUncertAssessNum":1,"sCombUncertEvaluator":"Data file compiler"},"Property-MethodID":{"PropertyGroup":{"PhaseTransition":{"tml_elements":["ePropName","eMethodName"],"eMethodName":"Static calorimetry","ePropName":"Molar enthalpy of vaporization or sublimation, kJ/mol"},"tml_elements":["PhaseTransition"]},"tml_elements":["PropertyGroup"]}}],"eExpPurpose":"Principal objective of the work","Variable":[{"VarPhaseID":{"tml_elements":["eVarPhase"],"eVarPhase":"Liquid"},"nVarNumber":1,"tml_elements":["nVarNumber","VariableID","VarPhaseID"],"VariableID":{"VariableType":{"tml_elements":["eTemperature"],"eTemperature":"Temperature, K"},"tml_elements":["VariableType"]}}],"Component":[{"RegNum":{"nOrgNum":1,"tml_elements":["nOrgNum"]},"nSampleNm":1,"tml_elements":["RegNum","nSampleNm"]}]},{"Property":[{"CombinedUncertainty":{"nCombUncertAssessNum":1,"sCombUncertEvaluator":"Data file compiler","tml_elements":["nCombUncertAssessNum","sCombUncertEvaluator","eCombUncertEvalMethod","nCombUncertLevOfConfid"],"nCombUncertLevOfConfid":95,"eCombUncertEvalMethod":"Propagation of evaluated standard uncertainties"},"ePresentation":"Direct value, X","tml_elements":["nPropNumber","Property-MethodID","PropPhaseID","ePresentation","CombinedUncertainty"],"PropPhaseID":{"tml_elements":["ePropPhase"],"ePropPhase":"Liquid"},"Property-MethodID":{"tml_elements":["PropertyGroup"],"PropertyGroup":{"tml_elements":["PhaseTransition"],"PhaseTransition":{"ePropName":"Molar enthalpy of vaporization or sublimation, kJ/mol","eMethodName":"Static calorimetry","tml_elements":["ePropName","eMethodName"]}}},"nPropNumber":1}],"eExpPurpose":"Principal objective of the work","sCompiler":"AB","dateDateAdded":"1/29/2015","nPureOrMixtureDataNumber":2,"NumValues":[{"VariableValue":[{"nVarNumber":1,"tml_elements":["nVarNumber","nVarValue","nVarDigits"],"nVarDigits":5,"nVarValue":298.15}],"PropertyValue":[{"nPropValue":63.8850420504,"CombinedUncertainty":{"tml_elements":["nCombUncertAssessNum","nCombExpandUncertValue"],"nCombExpandUncertValue":0.6383040124,"nCombUncertAssessNum":1},"tml_elements":["nPropNumber","nPropValue","nPropDigits","CombinedUncertainty"],"nPropNumber":1,"nPropDigits":5}],"tml_elements":["VariableValue","PropertyValue"]}],"PhaseID":[{"tml_elements":["ePhase"],"ePhase":"Liquid"},{"tml_elements":["ePhase"],"ePhase":"Gas"}],"tml_elements":["nPureOrMixtureDataNumber","Component","eExpPurpose","sCompiler","sContributor","dateDateAdded","Property","PhaseID","Variable","NumValues"],"Component":[{"nSampleNm":1,"RegNum":{"tml_elements":["nOrgNum"],"nOrgNum":2},"tml_elements":["RegNum","nSampleNm"]}],"Variable":[{"VarPhaseID":{"tml_elements":["eVarPhase"],"eVarPhase":"Liquid"},"nVarNumber":1,"tml_elements":["nVarNumber","VariableID","VarPhaseID"],"VariableID":{"VariableType":{"tml_elements":["eTemperature"],"eTemperature":"Temperature, K"},"tml_elements":["VariableType"]}}],"sContributor":"TRC"},{"sCompiler":"AB","dateDateAdded":"1/29/2015","nPureOrMixtureDataNumber":3,"NumValues":[{"VariableValue":[{"nVarNumber":1,"tml_elements":["nVarNumber","nVarValue","nVarDigits"],"nVarDigits":5,"nVarValue":298.15}],"PropertyValue":[{"CombinedUncertainty":{"nCombExpandUncertValue":1.4026560444,"tml_elements":["nCombUncertAssessNum","nCombExpandUncertValue"],"nCombUncertAssessNum":1},"nPropValue":81.0114996132,"tml_elements":["nPropNumber","nPropValue","nPropDigits","CombinedUncertainty"],"nPropNumber":1,"nPropDigits":5}],"tml_elements":["VariableValue","PropertyValue"]}],"Property":[{"CombinedUncertainty":{"nCombUncertAssessNum":1,"sCombUncertEvaluator":"Data file compiler","tml_elements":["nCombUncertAssessNum","sCombUncertEvaluator","eCombUncertEvalMethod","nCombUncertLevOfConfid"],"eCombUncertEvalMethod":"Propagation of evaluated standard uncertainties","nCombUncertLevOfConfid":95},"Property-MethodID":{"PropertyGroup":{"tml_elements":["PhaseTransition"],"PhaseTransition":{"tml_elements":["ePropName","eMethodName"],"eMethodName":"Static calorimetry","ePropName":"Molar enthalpy of vaporization or sublimation, kJ/mol"}},"tml_elements":["PropertyGroup"]},"ePresentation":"Direct value, X","tml_elements":["nPropNumber","Property-MethodID","PropPhaseID","ePresentation","CombinedUncertainty"],"PropPhaseID":{"ePropPhase":"Liquid","tml_elements":["ePropPhase"]},"nPropNumber":1}],"eExpPurpose":"Principal objective of the work","Variable":[{"tml_elements":["nVarNumber","VariableID","VarPhaseID"],"nVarNumber":1,"VarPhaseID":{"tml_elements":["eVarPhase"],"eVarPhase":"Liquid"},"VariableID":{"tml_elements":["VariableType"],"VariableType":{"tml_elements":["eTemperature"],"eTemperature":"Temperature, K"}}}],"sContributor":"TRC","PhaseID":[{"ePhase":"Liquid","tml_elements":["ePhase"]},{"ePhase":"Gas","tml_elements":["ePhase"]}],"tml_elements":["nPureOrMixtureDataNumber","Component","eExpPurpose","sCompiler","sContributor","dateDateAdded","Property","PhaseID","Variable","NumValues"],"Component":[{"tml_elements":["RegNum","nSampleNm"],"nSampleNm":1,"RegNum":{"tml_elements":["nOrgNum"],"nOrgNum":3}}]},{"eExpPurpose":"Principal objective of the work","Property":[{"nPropNumber":1,"PropPhaseID":{"ePropPhase":"Liquid","tml_elements":["ePropPhase"]},"tml_elements":["nPropNumber","Property-MethodID","PropPhaseID","ePresentation","CombinedUncertainty"],"ePresentation":"Direct value, X","Property-MethodID":{"PropertyGroup":{"tml_elements":["HeatCapacityAndDerivedProp"],"HeatCapacityAndDerivedProp":{"eMethodName":"Drop calorimetry","ePropName":"Molar heat capacity at constant pressure, J/K/mol","tml_elements":["ePropName","eMethodName"]}},"tml_elements":["PropertyGroup"]},"CombinedUncertainty":{"tml_elements":["nCombUncertAssessNum","sCombUncertEvaluator","eCombUncertEvalMethod","nCombUncertLevOfConfid"],"eCombUncertEvalMethod":"Propagation of evaluated standard uncertainties","nCombUncertLevOfConfid":95,"nCombUncertAssessNum":1,"sCombUncertEvaluator":"Data file compiler"}}],"NumValues":[{"VariableValue":[{"tml_elements":["nVarNumber","nVarValue","nVarDigits"],"nVarDigits":4,"nVarNumber":1,"nVarValue":300.6},{"nVarNumber":2,"tml_elements":["nVarNumber","nVarValue","nVarDigits"],"nVarDigits":6,"nVarValue":101.325}],"PropertyValue":[{"nPropValue":382.2147576,"CombinedUncertainty":{"nCombUncertAssessNum":1,"nCombExpandUncertValue":23.4376974,"tml_elements":["nCombUncertAssessNum","nCombExpandUncertValue"]},"tml_elements":["nPropNumber","nPropValue","nPropDigits","CombinedUncertainty"],"nPropNumber":1,"nPropDigits":3}],"tml_elements":["VariableValue","PropertyValue"]}],"sCompiler":"AB","nPureOrMixtureDataNumber":4,"dateDateAdded":"1/29/2015","Component":[{"RegNum":{"nOrgNum":3,"tml_elements":["nOrgNum"]},"nSampleNm":1,"tml_elements":["RegNum","nSampleNm"]}],"PhaseID":[{"tml_elements":["ePhase"],"ePhase":"Liquid"}],"tml_elements":["nPureOrMixtureDataNumber","Component","eExpPurpose","sCompiler","sContributor","dateDateAdded","Property","PhaseID","Variable","NumValues"],"Variable":[{"VarPhaseID":{"tml_elements":["eVarPhase"],"eVarPhase":"Liquid"},"nVarNumber":1,"tml_elements":["nVarNumber","VariableID","VarPhaseID"],"VariableID":{"VariableType":{"eTemperature":"Temperature, K","tml_elements":["eTemperature"]},"tml_elements":["VariableType"]}},{"nVarNumber":2,"VarPhaseID":{"tml_elements":["eVarPhase"],"eVarPhase":"Liquid"},"tml_elements":["nVarNumber","VariableID","VarPhaseID"],"VariableID":{"tml_elements":["VariableType"],"VariableType":{"ePressure":"Pressure, kPa","tml_elements":["ePressure"]}}}],"sContributor":"TRC"}],"THERMOML_MD5_CHECKSUM":"3fb9a161601fec3f0d1e9573683c61f4","Compound":[{"sStandardInChIKey":"IWDFHWZHHOSSGR-UHFFFAOYSA-N","sStandardInChI":"InChI=1S/C5H8N2/c1-2-7-4-3-6-5-7/h3-5H,2H2,1H3","RegNum":{"tml_elements":["nOrgNum"],"nOrgNum":1},"sFormulaMolec":"C5H8N2","Sample":[{"eSource":"Commercial source","nSampleNm":1,"tml_elements":["nSampleNm","eSource","purity"],"purity":[{"nPurityMassDigits":2,"tml_elements":["nStep","nPurityMass","nPurityMassDigits","eAnalMeth"],"nStep":1,"nPurityMass":95,"eAnalMeth":["Stated by supplier"]},{"tml_elements":["nStep","ePurifMethod"],"nStep":2,"ePurifMethod":["Fractional distillation"]},{"nWaterMassPerCent":0.00927,"tml_elements":["nStep","nWaterMassPerCent","nWaterMassPerCentDigits","eAnalMeth"],"nStep":3,"eAnalMeth":["Karl Fischer titration"],"nWaterMassPerCentDigits":3}]}],"sCommonName":["1-ethyl-1H-imidazole","1-ethylimidazole","1H-imidazole, 1-ethyl-"],"tml_elements":["RegNum","sStandardInChI","sStandardInChIKey","sCommonName","sFormulaMolec","Sample"]},{"RegNum":{"tml_elements":["nOrgNum"],"nOrgNum":2},"sStandardInChI":"InChI=1S/C7H12N2/c1-2-3-5-9-6-4-8-7-9/h4,6-7H,2-3,5H2,1H3","sStandardInChIKey":"MCMFEZDRQOJKMN-UHFFFAOYSA-N","sFormulaMolec":"C7H12N2","Sample":[{"tml_elements":["nSampleNm","eSource","purity"],"purity":[{"nStep":1,"nPurityMassDigits":3,"tml_elements":["nStep","nPurityMass","nPurityMassDigits","eAnalMeth"],"eAnalMeth":["Stated by supplier"],"nPurityMass":98.9},{"ePurifMethod":["Fractional distillation"],"nStep":2,"tml_elements":["nStep","ePurifMethod"]},{"nWaterMassPerCent":0.01765,"nWaterMassPerCentDigits":4,"eAnalMeth":["Karl Fischer titration"],"nStep":3,"tml_elements":["nStep","nWaterMassPerCent","nWaterMassPerCentDigits","eAnalMeth"]}],"nSampleNm":1,"eSource":"Commercial source"}],"tml_elements":["RegNum","sStandardInChI","sStandardInChIKey","sCommonName","sFormulaMolec","Sample"],"sCommonName":["1-butylimidazole","1-butyl-1H-imidazole","1-n-butylimidazole"]},{"sStandardInChIKey":"KLMZKZJCMDOKFE-UHFFFAOYSA-N","RegNum":{"tml_elements":["nOrgNum"],"nOrgNum":3},"sStandardInChI":"InChI=1S/C11H20N2/c1-2-3-4-5-6-7-9-13-10-8-12-11-13/h8,10-11H,2-7,9H2,1H3","tml_elements":["RegNum","sStandardInChI","sStandardInChIKey","sCommonName","sFormulaMolec","Sample"],"sCommonName":["1-octylimidazole","1-n-octylimidazole","1-octyl-1H-imidazole"],"Sample":[{"tml_elements":["nSampleNm","eSource","purity"],"purity":[{"tml_elements":["nStep","nPurityMass","nPurityMassDigits","eAnalMeth"],"nPurityMassDigits":3,"nStep":1,"nPurityMass":95.6,"eAnalMeth":["Stated by supplier"]},{"tml_elements":["nStep","ePurifMethod"],"nStep":2,"ePurifMethod":["Fractional distillation"]},{"nWaterMassPerCentDigits":6,"eAnalMeth":["Karl Fischer titration"],"tml_elements":["nStep","nWaterMassPerCent","nWaterMassPerCentDigits","eAnalMeth"],"nStep":3,"nWaterMassPerCent":0.107935}],"nSampleNm":1,"eSource":"Commercial source"}],"sFormulaMolec":"C11H20N2"}]}