{"Compound":[{"sFormulaMolec":"CO2","sCommonName":["carbon dioxide"],"tml_elements":["RegNum","sStandardInChI","sStandardInChIKey","sCommonName","sFormulaMolec"],"RegNum":{"nOrgNum":1,"tml_elements":["nOrgNum"]},"sStandardInChI":"InChI=1S/CO2/c2-1-3","sStandardInChIKey":"CURLTUGMZLYLDI-UHFFFAOYSA-N"},{"sFormulaMolec":"H2O","sCommonName":["water"],"tml_elements":["RegNum","sStandardInChI","sStandardInChIKey","sCommonName","sFormulaMolec"],"sStandardInChIKey":"XLYOFNOQVPJJNP-UHFFFAOYSA-N","sStandardInChI":"InChI=1S/H2O/h1H2","RegNum":{"tml_elements":["nOrgNum"],"nOrgNum":2}},{"sStandardInChI":"InChI=1S/O2/c1-2","RegNum":{"tml_elements":["nOrgNum"],"nOrgNum":3},"sStandardInChIKey":"MYMOFIZGZYHOMD-UHFFFAOYSA-N","sFormulaMolec":"O2","tml_elements":["RegNum","sStandardInChI","sStandardInChIKey","sCommonName","sFormulaMolec"],"sCommonName":["oxygen"]},{"sFormulaMolec":"C11H12O","tml_elements":["RegNum","sStandardInChI","sStandardInChIKey","sCommonName","sFormulaMolec","Sample"],"sCommonName":["1-benzosuberone","2,3,4,6-tetrahydro-1H-benzocyclohepten-1-one"],"Sample":[{"tml_elements":["nSampleNm","eSource","purity"],"purity":[{"eAnalMeth":["Gas chromatography"],"nPurityMass":99.45,"nPurityMassDigits":4,"tml_elements":["nStep","nPurityMass","nPurityMassDigits","eAnalMeth"],"nStep":1},{"nStep":2,"tml_elements":["nStep","ePurifMethod"],"ePurifMethod":["Fractional distillation"]},{"eAnalMeth":["CO2 yield in combustion products"],"nPurityMass":99.9,"nStep":3,"nPurityMassDigits":3,"tml_elements":["nStep","nPurityMass","nPurityMassDigits","eAnalMeth"]}],"eSource":"Commercial source","nSampleNm":1}],"sStandardInChI":"InChI=1S/C11H12O/c12-11-8-4-6-9-5-2-1-3-7-10(9)11/h1,3,5,7H,2,4,6,8H2","RegNum":{"tml_elements":["nOrgNum"],"nOrgNum":4},"sStandardInChIKey":"BGWYGFPEBUJQFM-UHFFFAOYSA-N"}],"Citation":{"eSourceType":"Original","tml_elements":["TRCRefID","eType","eSourceType","sAuthor","sPubName","yrPubYr","dateCit","sTitle","sAbstract","sKeyword","sDOI","sIDNum","sVol","sPage"],"sKeyword":["Enthalpy","Combustion","Vaporization","Computational calculations","G3(MP2)//B3LYP","1-Benzosuberone"],"sAuthor":["Miranda, M. S.[Margarida S.]","Morais, V. M. F.[Victor M.F.]","Matos, M. A. R.[M. Agostinha R.]","Liebman, J. F.[Joel F.]"],"TRCRefID":{"nAuthorn":"0","tml_elements":["yrYrPub","sAuthor1","sAuthor2","nAuthorn"],"sAuthor2":"mor","sAuthor1":"mir","yrYrPub":"2010"},"sAbstract":"The energetics of 1-benzosuberone was studied by a combination of calorimetric techniques and computational  calculations. The standard (p  = 0.1 MPa) molar enthalpy of formation of 1-benzosuberone, in the liquid phase, was  derived from the massic energy of combustion, in oxygen, at T = 298.15 K, measured by static bomb combustion  calorimetry. The standard molar enthalpy of vaporization, at T = 298.15 K, was measured by Calvet  microcalorimetry. From these two parameters the standard (p  = 0.1 MPa) molar enthalpy of  formation, in the gaseous phase, at T = 298.15 K, was derived:  (96.1 +- 3.4) kJ mol 1. The G3(MP2)//  B3LYP composite method and appropriate reactions were used to computationally calculate the standard  molar enthalpy of formation of 1-benzosuberone, in the gaseous phase, at T = 298.15 K. The computational  results are in very good agreement with the experimental value.","sTitle":"Standard molar enthalpy of formation of 1-benzosuberone: An experimental and computational study","sDOI":"10.1016/j.jct.2010.04.007","dateCit":"2020-09-29","sIDNum":"9","yrPubYr":"2010","sPubName":"J. Chem. Thermodyn.","eType":"journal","sVol":"42","sPage":"1094-1100"},"THERMOML_MD5_CHECKSUM":"f34e9ca88bc747ed562c68578ff3e6e6","ReactionData":[{"tml_elements":["nReactionDataNumber","Participant","eExpPurpose","sCompiler","sContributor","dateDateAdded","eReactionType","Property","NumValues"],"Participant":[{"tml_elements":["RegNum","nSampleNm","nStoichiometricCoef","ePhase"],"ePhase":"Crystal","nStoichiometricCoef":"-1","nSampleNm":1,"RegNum":{"nOrgNum":4,"tml_elements":["nOrgNum"]}},{"ePhase":"Ideal gas","tml_elements":["RegNum","nStoichiometricCoef","ePhase"],"RegNum":{"nOrgNum":1,"tml_elements":["nOrgNum"]},"nStoichiometricCoef":"11"},{"nStoichiometricCoef":"6","RegNum":{"nOrgNum":2,"tml_elements":["nOrgNum"]},"ePhase":"Liquid","tml_elements":["RegNum","nStoichiometricCoef","ePhase"]},{"RegNum":{"tml_elements":["nOrgNum"],"nOrgNum":3},"nStoichiometricCoef":"-13.5","tml_elements":["RegNum","nStoichiometricCoef","ePhase"],"ePhase":"Ideal gas"}],"eReactionType":"Combustion with oxygen","nReactionDataNumber":1,"sContributor":"XXX","eExpPurpose":"Principal objective of the work","Property":[{"nPropNumber":1,"tml_elements":["nPropNumber","Property-MethodID","nTemperature-K","nTemperatureDigits","nPressure-kPa","nPressureDigits","CombinedUncertainty"],"nTemperature-K":"298.15","CombinedUncertainty":{"nCombUncertLevOfConfid":95,"eCombUncertEvalMethod":"Propagation of evaluated standard uncertainties","tml_elements":["nCombUncertAssessNum","sCombUncertEvaluator","eCombUncertEvalMethod","nCombUncertLevOfConfid"],"sCombUncertEvaluator":"Data file compiler","nCombUncertAssessNum":1},"nPressureDigits":1,"nPressure-kPa":"100","Property-MethodID":{"tml_elements":["PropertyGroup"],"PropertyGroup":{"ReactionStateChangeProp":{"eMethodName":"Static bomb calorimetry","ePropName":"Specific internal energy of reaction at constant volume, J/g","tml_elements":["ePropName","eMethodName"]},"tml_elements":["ReactionStateChangeProp"]}},"nTemperatureDigits":5}],"dateDateAdded":"10/26/2012","sCompiler":"VVD","NumValues":[{"tml_elements":["PropertyValue"],"PropertyValue":[{"tml_elements":["nPropNumber","nPropValue","nPropDigits","CombinedUncertainty"],"nPropDigits":6,"nPropNumber":1,"CombinedUncertainty":{"tml_elements":["nCombUncertAssessNum","nCombExpandUncertValue"],"nCombExpandUncertValue":12,"nCombUncertAssessNum":1},"nPropValue":-36653.2}],"VariableValue":[]}]}],"PureOrMixtureData":[{"Component":[{"RegNum":{"tml_elements":["nOrgNum"],"nOrgNum":4},"nSampleNm":1,"tml_elements":["RegNum","nSampleNm"]}],"tml_elements":["nPureOrMixtureDataNumber","Component","eExpPurpose","sCompiler","sContributor","dateDateAdded","Property","PhaseID","Variable","NumValues"],"PhaseID":[{"tml_elements":["ePhase"],"ePhase":"Liquid"},{"tml_elements":["ePhase"],"ePhase":"Gas"}],"sContributor":"TRC","Variable":[{"tml_elements":["nVarNumber","VariableID","VarPhaseID"],"nVarNumber":1,"VarPhaseID":{"eVarPhase":"Liquid","tml_elements":["eVarPhase"]},"VariableID":{"tml_elements":["VariableType"],"VariableType":{"eTemperature":"Temperature, K","tml_elements":["eTemperature"]}}}],"eExpPurpose":"Principal objective of the work","Property":[{"Property-MethodID":{"tml_elements":["PropertyGroup"],"PropertyGroup":{"tml_elements":["PhaseTransition"],"PhaseTransition":{"eMethodName":"Static calorimetry","ePropName":"Molar enthalpy of vaporization or sublimation, kJ/mol","tml_elements":["ePropName","eMethodName"]}}},"CombinedUncertainty":{"nCombUncertLevOfConfid":95,"eCombUncertEvalMethod":"Propagation of evaluated standard uncertainties","tml_elements":["nCombUncertAssessNum","sCombUncertEvaluator","eCombUncertEvalMethod","nCombUncertLevOfConfid"],"sCombUncertEvaluator":"Data file compiler","nCombUncertAssessNum":1},"tml_elements":["nPropNumber","Property-MethodID","PropPhaseID","ePresentation","CombinedUncertainty"],"ePresentation":"Direct value, X","nPropNumber":1,"PropPhaseID":{"ePropPhase":"Liquid","tml_elements":["ePropPhase"]}}],"NumValues":[{"VariableValue":[{"nVarValue":298.15,"nVarDigits":5,"tml_elements":["nVarNumber","nVarValue","nVarDigits"],"nVarNumber":1}],"tml_elements":["VariableValue","PropertyValue"],"PropertyValue":[{"tml_elements":["nPropNumber","nPropValue","nPropDigits","CombinedUncertainty"],"nPropNumber":1,"nPropDigits":2,"CombinedUncertainty":{"nCombUncertAssessNum":1,"nCombExpandUncertValue":1.7,"tml_elements":["nCombUncertAssessNum","nCombExpandUncertValue"]},"nPropValue":69}]}],"nPureOrMixtureDataNumber":1,"dateDateAdded":"10/26/2012","sCompiler":"VVD"},{"PhaseID":[{"tml_elements":["ePhase"],"ePhase":"Gas"}],"tml_elements":["nPureOrMixtureDataNumber","Component","eExpPurpose","sCompiler","sContributor","dateDateAdded","Property","PhaseID","Variable","NumValues"],"Component":[{"tml_elements":["RegNum","nSampleNm"],"RegNum":{"nOrgNum":4,"tml_elements":["nOrgNum"]},"nSampleNm":1}],"Variable":[{"VariableID":{"VariableType":{"eTemperature":"Temperature, K","tml_elements":["eTemperature"]},"tml_elements":["VariableType"]},"tml_elements":["nVarNumber","VariableID","VarPhaseID"],"nVarNumber":1,"VarPhaseID":{"eVarPhase":"Gas","tml_elements":["eVarPhase"]}},{"tml_elements":["nVarNumber","VariableID","VarPhaseID"],"VarPhaseID":{"eVarPhase":"Gas","tml_elements":["eVarPhase"]},"nVarNumber":2,"VariableID":{"VariableType":{"ePressure":"Pressure, kPa","tml_elements":["ePressure"]},"tml_elements":["VariableType"]}}],"sContributor":"XXX","eExpPurpose":"Principal objective of the work","Property":[{"ePresentation":"Difference with the reference state, X-X(REF)","nRefTemp":"298.15","RefPhaseID":{"tml_elements":["eRefPhase"],"eRefPhase":"Crystal"},"Property-MethodID":{"PropertyGroup":{"HeatCapacityAndDerivedProp":{"ePropName":"Molar enthalpy, kJ/mol","sMethodName":"Calvet Microcalorimetry","tml_elements":["ePropName","sMethodName"]},"tml_elements":["HeatCapacityAndDerivedProp"]},"tml_elements":["PropertyGroup"]},"nRefPressureDigits":1,"nRefTempDigits":5,"PropPhaseID":{"ePropPhase":"Gas","tml_elements":["ePropPhase"]},"nPropNumber":1,"tml_elements":["nPropNumber","Property-MethodID","PropPhaseID","ePresentation","eRefStateType","nRefTemp","nRefTempDigits","nRefPressure","nRefPressureDigits","RefPhaseID","CombinedUncertainty"],"CombinedUncertainty":{"tml_elements":["nCombUncertAssessNum","sCombUncertEvaluator","eCombUncertEvalMethod","nCombUncertLevOfConfid"],"nCombUncertLevOfConfid":95,"eCombUncertEvalMethod":"Propagation of evaluated standard uncertainties","nCombUncertAssessNum":1,"sCombUncertEvaluator":"Data file compiler"},"nRefPressure":"100","eRefStateType":"Reference phase with the same composition at fixed temperature and pressure"}],"sCompiler":"VVD","nPureOrMixtureDataNumber":2,"dateDateAdded":"10/26/2012","NumValues":[{"VariableValue":[{"tml_elements":["nVarNumber","nVarValue","nVarDigits"],"nVarDigits":3,"nVarNumber":1,"nVarValue":362},{"nVarDigits":6,"tml_elements":["nVarNumber","nVarValue","nVarDigits"],"nVarNumber":2,"nVarValue":101.325}],"PropertyValue":[{"tml_elements":["nPropNumber","nPropValue","nPropDigits","CombinedUncertainty"],"nPropDigits":3,"nPropNumber":1,"nPropValue":81.1,"CombinedUncertainty":{"tml_elements":["nCombUncertAssessNum","nCombExpandUncertValue"],"nCombExpandUncertValue":3.4,"nCombUncertAssessNum":1}}],"tml_elements":["VariableValue","PropertyValue"]}]}],"tml_elements":["Version","Citation","Compound","PureOrMixtureData","ReactionData"],"Version":{"tml_elements":["nVersionMajor","nVersionMinor"],"nVersionMinor":0,"nVersionMajor":2}}