{"Version":{"tml_elements":["nVersionMajor","nVersionMinor"],"nVersionMajor":2,"nVersionMinor":0},"Compound":[{"sCommonName":["zinc(II) oxide","zinc oxide"],"tml_elements":["RegNum","sStandardInChI","sStandardInChIKey","sCommonName","sFormulaMolec","Sample"],"Sample":[{"purity":[{"eAnalMeth":["Estimated by the compiler"],"nPurityMass":98,"nStep":1,"tml_elements":["nStep","nPurityMass","nPurityMassDigits","eAnalMeth"],"nPurityMassDigits":2}],"tml_elements":["nSampleNm","eSource","purity"],"eSource":"Commercial source","nSampleNm":1}],"sFormulaMolec":"OZn","sStandardInChI":"InChI=1S/O.Zn/q-2;+2","RegNum":{"tml_elements":["nOrgNum"],"nOrgNum":1},"sStandardInChIKey":"RNWHGQJWIACOKP-UHFFFAOYSA-N"},{"sStandardInChI":"InChI=1S/4O.Sn.2Zn/q4*-2;+4;2*+2","RegNum":{"nOrgNum":2,"tml_elements":["nOrgNum"]},"sStandardInChIKey":"FHIBHQXIPQTPKM-UHFFFAOYSA-N","sFormulaMolec":"O4SnZn2","tml_elements":["RegNum","sStandardInChI","sStandardInChIKey","sCommonName","sFormulaMolec","Sample"],"sCommonName":["tin zinc oxide (SnZn2O4)","zinc stannate(IV) (Zn2SnO4)"],"Sample":[{"purity":[{"nPurityMass":97,"eAnalMeth":["Estimated by the compiler"],"tml_elements":["nStep","nPurityMass","nPurityMassDigits","eAnalMeth"],"nPurityMassDigits":2,"nStep":1}],"tml_elements":["nSampleNm","eSource","purity"],"eSource":"Synthesized by the authors","nSampleNm":1}]},{"sStandardInChIKey":"ATJFFYVFTNAWJD-UHFFFAOYSA-N","RegNum":{"nOrgNum":3,"tml_elements":["nOrgNum"]},"sStandardInChI":"InChI=1S/Sn","sCommonName":["tin"],"tml_elements":["RegNum","sStandardInChI","sStandardInChIKey","sCommonName","sFormulaMolec"],"sFormulaMolec":"Sn"},{"sFormulaMolec":"Zn","sCommonName":["zinc"],"tml_elements":["RegNum","sStandardInChI","sStandardInChIKey","sCommonName","sFormulaMolec"],"sStandardInChI":"InChI=1S/Zn","RegNum":{"tml_elements":["nOrgNum"],"nOrgNum":4},"sStandardInChIKey":"HCHKCACWOHOZIP-UHFFFAOYSA-N"},{"sStandardInChIKey":"MYMOFIZGZYHOMD-UHFFFAOYSA-N","sStandardInChI":"InChI=1S/O2/c1-2","RegNum":{"tml_elements":["nOrgNum"],"nOrgNum":5},"sCommonName":["oxygen"],"tml_elements":["RegNum","sStandardInChI","sStandardInChIKey","sCommonName","sFormulaMolec"],"sFormulaMolec":"O2"},{"RegNum":{"tml_elements":["nOrgNum"],"nOrgNum":6},"sStandardInChI":"InChI=1S/2O.Sn/q2*-2;+4","sStandardInChIKey":"DDSPUNTXKUFWTM-UHFFFAOYSA-N","sFormulaMolec":"O2Sn","tml_elements":["RegNum","sStandardInChI","sStandardInChIKey","sCommonName","sFormulaMolec","Sample"],"sCommonName":["tin dioxide","stannic oxide","tin oxide"],"Sample":[{"nSampleNm":1,"eSource":"Commercial source","purity":[{"nStep":1,"tml_elements":["nStep","nPurityMass","nPurityMassDigits","eAnalMeth"],"nPurityMassDigits":2,"eAnalMeth":["Estimated by the compiler"],"nPurityMass":98}],"tml_elements":["nSampleNm","eSource","purity"]}]}],"Citation":{"tml_elements":["TRCRefID","eType","eSourceType","sAuthor","sPubName","yrPubYr","dateCit","sTitle","sAbstract","sKeyword","sDOI","sVol","sPage"],"sAuthor":["Gribchenkova, N. A.","Steblevsky, A. V.","Alikhanyan, A. S."],"sKeyword":["ZnO-SnO2 system","Zn2SnO4","Knudsen effusion","Mass spectrometry","Vapor pressure","Enthalpy of formation"],"TRCRefID":{"sAuthor2":"ste","sAuthor1":"gri","nAuthorn":"0","tml_elements":["yrYrPub","sAuthor1","sAuthor2","nAuthorn"],"yrYrPub":"2014"},"sAbstract":"Vaporization processes in the ZnO-SnO2 system have been studied by the Knudsen effusion technique in combination with mass spectrometric analysis of the vapor phase in the temperature range 1360 K to 1460 K. It has been identified by studying the ZnO SnO2 system in quartz cells that its gas phase mainly consists of Zn(g), O2 and SnO(g).The partial pressures of the vapor species were determined at 1450 K. The incongruent character of the Zn2SnO4 vaporization was stated, and the p x projection of the ZnO SnO2 phase diagram at 1450 K was constructed. The standard molar enthalpy of formation of the mixed oxide Zn2SnO4 at 298 K was found to be 1296.2 +- 7.5 kJ  mol 1.","sDOI":"10.1016/j.jct.2013.11.010","sTitle":"Vaporization thermodynamics of the ZnO-SnO2 system","eSourceType":"Original","eType":"journal","sVol":"70","sPage":"203-206","sPubName":"J. Chem. Thermodyn.","yrPubYr":"2014","dateCit":"2020-09-29"},"THERMOML_MD5_CHECKSUM":"62150516ce216bb60e517abfdb9e65ed","ReactionData":[{"sContributor":"TRC","nReactionDataNumber":1,"eReactionType":"Other reactions","Participant":[{"tml_elements":["RegNum","nStoichiometricCoef","ePhase"],"ePhase":"Crystal","RegNum":{"nOrgNum":1,"tml_elements":["nOrgNum"]},"nStoichiometricCoef":"-2"},{"tml_elements":["RegNum","nStoichiometricCoef","ePhase"],"ePhase":"Crystal","nStoichiometricCoef":"1","RegNum":{"tml_elements":["nOrgNum"],"nOrgNum":2}},{"nSampleNm":1,"nStoichiometricCoef":"-1","RegNum":{"tml_elements":["nOrgNum"],"nOrgNum":6},"ePhase":"Crystal","tml_elements":["RegNum","nSampleNm","nStoichiometricCoef","ePhase"]}],"tml_elements":["nReactionDataNumber","Participant","eExpPurpose","sCompiler","sContributor","dateDateAdded","eReactionType","Property","NumValues"],"NumValues":[{"VariableValue":[],"tml_elements":["PropertyValue"],"PropertyValue":[{"nPropNumber":1,"nPropDigits":3,"tml_elements":["nPropNumber","nPropValue","nPropDigits","CombinedUncertainty"],"nPropValue":-20.3,"CombinedUncertainty":{"nCombExpandUncertValue":12.3,"tml_elements":["nCombUncertAssessNum","nCombExpandUncertValue"],"nCombUncertAssessNum":1}}]}],"sCompiler":"AB","dateDateAdded":"3/22/2014","Property":[{"nPropNumber":1,"tml_elements":["nPropNumber","Property-MethodID","nTemperature-K","nTemperatureDigits","nPressure-kPa","nPressureDigits","CombinedUncertainty"],"Property-MethodID":{"PropertyGroup":{"tml_elements":["ReactionStateChangeProp"],"ReactionStateChangeProp":{"tml_elements":["ePropName","sMethodName"],"ePropName":"Molar Gibbs energy of reaction, kJ/mol","sMethodName":"derived from Knudsen effusion and mass spectral data"}},"tml_elements":["PropertyGroup"]},"nTemperatureDigits":3,"nTemperature-K":"1450","CombinedUncertainty":{"nCombUncertAssessNum":1,"sCombUncertEvaluator":"Data file compiler","tml_elements":["nCombUncertAssessNum","sCombUncertEvaluator","eCombUncertEvalMethod","nCombUncertLevOfConfid"],"nCombUncertLevOfConfid":95,"eCombUncertEvalMethod":"Propagation of evaluated standard uncertainties"},"nPressureDigits":1,"nPressure-kPa":"100"}],"eExpPurpose":"Principal objective of the work"},{"dateDateAdded":"3/22/2014","sCompiler":"AB","NumValues":[{"tml_elements":["PropertyValue"],"PropertyValue":[{"tml_elements":["nPropNumber","nPropValue","nPropDigits","CombinedUncertainty"],"nPropNumber":1,"nPropDigits":5,"nPropValue":-1296.2,"CombinedUncertainty":{"nCombUncertAssessNum":1,"tml_elements":["nCombUncertAssessNum","nCombExpandUncertValue"],"nCombExpandUncertValue":34.7}}],"VariableValue":[]}],"eExpPurpose":"Principal objective of the work","Property":[{"tml_elements":["nPropNumber","Property-MethodID","nTemperature-K","nTemperatureDigits","nPressure-kPa","nPressureDigits","CombinedUncertainty"],"nTemperatureDigits":3,"nPropNumber":1,"Property-MethodID":{"tml_elements":["PropertyGroup"],"PropertyGroup":{"ReactionStateChangeProp":{"tml_elements":["ePropName","sMethodName"],"ePropName":"Molar enthalpy of reaction, kJ/mol","sMethodName":"derived from Knudsen effusiona and mass spectroscopy"},"tml_elements":["ReactionStateChangeProp"]}},"nPressureDigits":1,"nPressure-kPa":"100","nTemperature-K":"298","CombinedUncertainty":{"tml_elements":["nCombUncertAssessNum","sCombUncertEvaluator","eCombUncertEvalMethod","nCombUncertLevOfConfid"],"eCombUncertEvalMethod":"Propagation of evaluated standard uncertainties","nCombUncertLevOfConfid":95,"nCombUncertAssessNum":1,"sCombUncertEvaluator":"Data file compiler"}}],"nReactionDataNumber":2,"sContributor":"TRC","tml_elements":["nReactionDataNumber","Participant","eExpPurpose","sCompiler","sContributor","dateDateAdded","eReactionType","Property","NumValues"],"Participant":[{"ePhase":"Crystal","tml_elements":["RegNum","nStoichiometricCoef","ePhase"],"nStoichiometricCoef":"-1","RegNum":{"tml_elements":["nOrgNum"],"nOrgNum":3}},{"ePhase":"Crystal","tml_elements":["RegNum","nStoichiometricCoef","ePhase"],"nStoichiometricCoef":"-2","RegNum":{"tml_elements":["nOrgNum"],"nOrgNum":4}},{"tml_elements":["RegNum","nSampleNm","nStoichiometricCoef","ePhase"],"ePhase":"Crystal","nStoichiometricCoef":"1","nSampleNm":1,"RegNum":{"tml_elements":["nOrgNum"],"nOrgNum":2}},{"tml_elements":["RegNum","nStoichiometricCoef","ePhase"],"ePhase":"Ideal gas","nStoichiometricCoef":"-2","RegNum":{"nOrgNum":5,"tml_elements":["nOrgNum"]}}],"eReactionType":"Formation of a compound from elements in their stable state"},{"Property":[{"CombinedUncertainty":{"nCombUncertAssessNum":1,"sCombUncertEvaluator":"Data file compiler","tml_elements":["nCombUncertAssessNum","sCombUncertEvaluator","eCombUncertEvalMethod","nCombUncertLevOfConfid"],"eCombUncertEvalMethod":"Propagation of evaluated standard uncertainties","nCombUncertLevOfConfid":95},"eStandardState":"Pure compound","nPropNumber":1,"Property-MethodID":{"tml_elements":["PropertyGroup"],"PropertyGroup":{"tml_elements":["ReactionEquilibriumProp"],"ReactionEquilibriumProp":{"tml_elements":["ePropName","sMethodName"],"ePropName":"Thermodynamic equilibrium constant","sMethodName":"derived from Knudsen effusion and mass spectral data"}}},"tml_elements":["nPropNumber","Property-MethodID","eStandardState","CombinedUncertainty"]}],"eExpPurpose":"Principal objective of the work","dateDateAdded":"3/22/2014","sCompiler":"AB","NumValues":[{"VariableValue":[],"PropertyValue":[{"tml_elements":["nPropNumber","nPropValue","nPropDigits","CombinedUncertainty"],"nPropDigits":3,"nPropNumber":1,"CombinedUncertainty":{"nCombUncertAssessNum":1,"tml_elements":["nCombUncertAssessNum","nCombExpandUncertValue"],"nCombExpandUncertValue":1.18e-08},"nPropValue":5.86e-08}],"tml_elements":["PropertyValue"]},{"VariableValue":[],"tml_elements":["PropertyValue"],"PropertyValue":[{"nPropValue":8.12e-08,"CombinedUncertainty":{"nCombUncertAssessNum":1,"nCombExpandUncertValue":1.63e-08,"tml_elements":["nCombUncertAssessNum","nCombExpandUncertValue"]},"tml_elements":["nPropNumber","nPropValue","nPropDigits","CombinedUncertainty"],"nPropNumber":1,"nPropDigits":3}]},{"VariableValue":[],"PropertyValue":[{"tml_elements":["nPropNumber","nPropValue","nPropDigits","CombinedUncertainty"],"nPropNumber":1,"nPropDigits":3,"CombinedUncertainty":{"nCombExpandUncertValue":2.3e-08,"tml_elements":["nCombUncertAssessNum","nCombExpandUncertValue"],"nCombUncertAssessNum":1},"nPropValue":1.12e-07}],"tml_elements":["PropertyValue"]},{"VariableValue":[],"tml_elements":["PropertyValue"],"PropertyValue":[{"CombinedUncertainty":{"nCombUncertAssessNum":1,"nCombExpandUncertValue":3.1e-08,"tml_elements":["nCombUncertAssessNum","nCombExpandUncertValue"]},"nPropValue":1.54e-07,"tml_elements":["nPropNumber","nPropValue","nPropDigits","CombinedUncertainty"],"nPropNumber":1,"nPropDigits":3}]},{"VariableValue":[],"tml_elements":["PropertyValue"],"PropertyValue":[{"nPropNumber":1,"nPropDigits":3,"tml_elements":["nPropNumber","nPropValue","nPropDigits","CombinedUncertainty"],"CombinedUncertainty":{"tml_elements":["nCombUncertAssessNum","nCombExpandUncertValue"],"nCombExpandUncertValue":4.2e-08,"nCombUncertAssessNum":1},"nPropValue":2.1e-07}]},{"VariableValue":[],"PropertyValue":[{"nPropDigits":3,"nPropNumber":1,"tml_elements":["nPropNumber","nPropValue","nPropDigits","CombinedUncertainty"],"nPropValue":2.86e-07,"CombinedUncertainty":{"nCombUncertAssessNum":1,"tml_elements":["nCombUncertAssessNum","nCombExpandUncertValue"],"nCombExpandUncertValue":5.8e-08}}],"tml_elements":["PropertyValue"]},{"tml_elements":["PropertyValue"],"PropertyValue":[{"nPropValue":3.88e-07,"CombinedUncertainty":{"nCombUncertAssessNum":1,"tml_elements":["nCombUncertAssessNum","nCombExpandUncertValue"],"nCombExpandUncertValue":7.8e-08},"nPropNumber":1,"nPropDigits":3,"tml_elements":["nPropNumber","nPropValue","nPropDigits","CombinedUncertainty"]}],"VariableValue":[]},{"tml_elements":["PropertyValue"],"PropertyValue":[{"nPropValue":5.23e-07,"CombinedUncertainty":{"nCombUncertAssessNum":1,"tml_elements":["nCombUncertAssessNum","nCombExpandUncertValue"],"nCombExpandUncertValue":1.05e-07},"tml_elements":["nPropNumber","nPropValue","nPropDigits","CombinedUncertainty"],"nPropNumber":1,"nPropDigits":3}],"VariableValue":[]},{"PropertyValue":[{"CombinedUncertainty":{"nCombUncertAssessNum":1,"nCombExpandUncertValue":1.41e-07,"tml_elements":["nCombUncertAssessNum","nCombExpandUncertValue"]},"nPropValue":7.03e-07,"tml_elements":["nPropNumber","nPropValue","nPropDigits","CombinedUncertainty"],"nPropDigits":3,"nPropNumber":1}],"tml_elements":["PropertyValue"],"VariableValue":[]},{"VariableValue":[],"PropertyValue":[{"nPropNumber":1,"nPropDigits":3,"tml_elements":["nPropNumber","nPropValue","nPropDigits","CombinedUncertainty"],"nPropValue":9.41e-07,"CombinedUncertainty":{"nCombExpandUncertValue":1.89e-07,"tml_elements":["nCombUncertAssessNum","nCombExpandUncertValue"],"nCombUncertAssessNum":1}}],"tml_elements":["PropertyValue"]},{"tml_elements":["PropertyValue"],"PropertyValue":[{"CombinedUncertainty":{"nCombExpandUncertValue":2.5e-07,"tml_elements":["nCombUncertAssessNum","nCombExpandUncertValue"],"nCombUncertAssessNum":1},"nPropValue":1.25e-06,"nPropDigits":3,"nPropNumber":1,"tml_elements":["nPropNumber","nPropValue","nPropDigits","CombinedUncertainty"]}],"VariableValue":[]}],"tml_elements":["nReactionDataNumber","Participant","eExpPurpose","sCompiler","sContributor","dateDateAdded","eReactionType","Property","NumValues"],"Participant":[{"tml_elements":["RegNum","nSampleNm","nStoichiometricCoef","ePhase"],"ePhase":"Crystal","nStoichiometricCoef":"-1","nSampleNm":1,"RegNum":{"nOrgNum":1,"tml_elements":["nOrgNum"]}},{"tml_elements":["RegNum","nStoichiometricCoef","ePhase"],"ePhase":"Gas","nStoichiometricCoef":"1","RegNum":{"nOrgNum":4,"tml_elements":["nOrgNum"]}},{"ePhase":"Gas","tml_elements":["RegNum","nStoichiometricCoef","ePhase"],"nStoichiometricCoef":".5","RegNum":{"nOrgNum":5,"tml_elements":["nOrgNum"]}}],"eReactionType":"Other reactions","nReactionDataNumber":3,"sContributor":"TRC"}],"tml_elements":["Version","Citation","Compound","ReactionData"]}