{"Citation":{"eSourceType":"Original","sAbstract":"The standard (p = 0.1 MPa) molar energies of combustion in oxygen, at T = 298.15 K, of two crystalline bis(N,N-diethylthioureas) R(CONHCSNEt2)2: pyridine-2,6-dicarbonyl-bis(N,N-diethylthiourea), R = pyridyl, abbreviated as (bis-py-DETU), and adipoyl-dicarbonyl- bis(N,N-diethylthiourea), R = (CH2)4, abbreviated as (bis-ad-DETU), were measured by rotating bomb calorimetry so, the standard molar enthalpies of formation of both compounds, in their crystalline phase, were derived.  Furthermore, the energetics of the title compounds were studied by means of density functional theory calculations at the B3LYP/ 6- 311G(dp) level of theory.","TRCRefID":{"sAuthor2":"san","sAuthor1":"rib","nAuthorn":"0","tml_elements":["yrYrPub","sAuthor1","sAuthor2","nAuthorn"],"yrYrPub":"2007"},"sDOI":"10.1016/j.jct.2006.07.007","sTitle":"Enthalpies of combustion of two bis(N,N-diethylthioureas)","tml_elements":["TRCRefID","eType","eSourceType","sAuthor","sPubName","yrPubYr","dateCit","sTitle","sAbstract","sKeyword","sDOI","sIDNum","sVol","sPage"],"sAuthor":["Ribeiro da Silva, M. A. V.[Manuel A. V.]","Santos, L. M. N. B. F.[Luis M. N. B. F.]","Schroder, B.[Bernd]","Beyer, L.[Lothar]","Dietze, Frank"],"sKeyword":["Energy of combustion","Enthalpy of formation","Pyridine-2,6-dicarbonyl-bis(N,N-diethylthiourea)","Adipoyl-dicarbonyl-bis(N,N-diethylthiourea)"],"yrPubYr":"2007","sPubName":"J. Chem. Thermodyn.","dateCit":"2020-09-29","sIDNum":"2","sPage":"279-283","eType":"journal","sVol":"39"},"Version":{"tml_elements":["nVersionMajor","nVersionMinor"],"nVersionMinor":0,"nVersionMajor":2},"THERMOML_MD5_CHECKSUM":"1788d823366d389b3b588d259d72756e","Compound":[{"sStandardInChIKey":"QAOWNCQODCNURD-UHFFFAOYSA-N","sStandardInChI":"InChI=1S/H2O4S/c1-5(2,3)4/h(H2,1,2,3,4)","RegNum":{"tml_elements":["nOrgNum"],"nOrgNum":1},"sCommonName":["sulfuric acid"],"tml_elements":["RegNum","sStandardInChI","sStandardInChIKey","sCommonName","sFormulaMolec"],"sFormulaMolec":"H2O4S"},{"RegNum":{"nOrgNum":2,"tml_elements":["nOrgNum"]},"sStandardInChI":"InChI=1S/CO2/c2-1-3","sStandardInChIKey":"CURLTUGMZLYLDI-UHFFFAOYSA-N","sFormulaMolec":"CO2","sCommonName":["carbon dioxide"],"tml_elements":["RegNum","sStandardInChI","sStandardInChIKey","sCommonName","sFormulaMolec"]},{"sFormulaMolec":"N2","sCommonName":["nitrogen"],"tml_elements":["RegNum","sStandardInChI","sStandardInChIKey","sCommonName","sFormulaMolec"],"RegNum":{"nOrgNum":3,"tml_elements":["nOrgNum"]},"sStandardInChI":"InChI=1S/N2/c1-2","sStandardInChIKey":"IJGRMHOSHXDMSA-UHFFFAOYSA-N"},{"tml_elements":["RegNum","sStandardInChI","sStandardInChIKey","sCommonName","sFormulaMolec"],"sCommonName":["water"],"sFormulaMolec":"H2O","sStandardInChIKey":"XLYOFNOQVPJJNP-UHFFFAOYSA-N","RegNum":{"tml_elements":["nOrgNum"],"nOrgNum":4},"sStandardInChI":"InChI=1S/H2O/h1H2"},{"tml_elements":["RegNum","sStandardInChI","sStandardInChIKey","sCommonName","sFormulaMolec"],"sCommonName":["oxygen"],"sStandardInChIKey":"MYMOFIZGZYHOMD-UHFFFAOYSA-N","sFormulaMolec":"O2","sStandardInChI":"InChI=1S/O2/c1-2","RegNum":{"nOrgNum":5,"tml_elements":["nOrgNum"]}},{"RegNum":{"tml_elements":["nOrgNum"],"nOrgNum":6},"sStandardInChI":"InChI=1S/C16H30N4O2S2/c1-5-19(6-2)15(23)17-13(21)11-9-10-12-14(22)18-16(24)20(7-3)8-4/h5-12H2,1-4H3,(H,17,21,23)(H,18,22,24)","sStandardInChIKey":"LURINBWTMYYMKO-UHFFFAOYSA-N","tml_elements":["RegNum","sStandardInChI","sStandardInChIKey","sCommonName","sFormulaMolec","Sample"],"sCommonName":["N1,N6-bis[(diethylamino)thioxomethyl]hexanediamide"],"Sample":[{"purity":[{"ePurifMethod":["Crystallization from solution"],"nStep":1,"tml_elements":["nStep","ePurifMethod"]},{"nStep":2,"tml_elements":["nStep","nPurityMass","nPurityMassDigits","eAnalMeth"],"nPurityMassDigits":4,"eAnalMeth":["Chemical analysis"],"nPurityMass":99.81}],"tml_elements":["nSampleNm","eSource","purity"],"nSampleNm":1,"eSource":"Synthesized by the authors"}],"sFormulaMolec":"C16H30N4O2S2"},{"sStandardInChIKey":"WICNAZQAIGNDSX-UHFFFAOYSA-N","sStandardInChI":"InChI=1S/C17H25N5O2S2/c1-5-21(6-2)16(25)19-14(23)12-10-9-11-13(18-12)15(24)20-17(26)22(7-3)8-4/h9-11H,5-8H2,1-4H3,(H,19,23,25)(H,20,24,26)","RegNum":{"tml_elements":["nOrgNum"],"nOrgNum":7},"sCommonName":["N2,N6-bis[(diethylamino)thioxomethyl]-2,6-pyridinedicarboxamide"],"Sample":[{"nSampleNm":1,"eSource":"Synthesized by the authors","purity":[{"nStep":1,"tml_elements":["nStep","ePurifMethod"],"ePurifMethod":["Crystallization from solution"]},{"nPurityMass":99.55,"eAnalMeth":["Chemical analysis"],"tml_elements":["nStep","nPurityMass","nPurityMassDigits","eAnalMeth"],"nPurityMassDigits":4,"nStep":2}],"tml_elements":["nSampleNm","eSource","purity"]}],"tml_elements":["RegNum","sStandardInChI","sStandardInChIKey","sCommonName","sFormulaMolec","Sample"],"sFormulaMolec":"C17H25N5O2S2"}],"tml_elements":["Version","Citation","Compound","ReactionData"],"ReactionData":[{"sCompiler":"JAB","dateDateAdded":"7/9/2007","NumValues":[{"VariableValue":[],"PropertyValue":[{"nPropValue":-29699.6,"CombinedUncertainty":{"nCombUncertAssessNum":1,"nCombExpandUncertValue":12.8,"tml_elements":["nCombUncertAssessNum","nCombExpandUncertValue"]},"nPropNumber":1,"nPropDigits":6,"tml_elements":["nPropNumber","nPropValue","nPropDigits","CombinedUncertainty"]}],"tml_elements":["PropertyValue"]}],"Property":[{"nPressureDigits":4,"nPressure-kPa":"101.3","nTemperature-K":"298.15","CombinedUncertainty":{"nCombUncertLevOfConfid":95,"eCombUncertEvalMethod":"Propagation of evaluated standard uncertainties","tml_elements":["nCombUncertAssessNum","sCombUncertEvaluator","eCombUncertEvalMethod","nCombUncertLevOfConfid"],"sCombUncertEvaluator":"Data file compiler","nCombUncertAssessNum":1},"tml_elements":["nPropNumber","Property-MethodID","nTemperature-K","nTemperatureDigits","nPressure-kPa","nPressureDigits","CombinedUncertainty"],"nTemperatureDigits":5,"nPropNumber":1,"Property-MethodID":{"PropertyGroup":{"ReactionStateChangeProp":{"ePropName":"Specific internal energy of reaction at constant volume, J/g","eMethodName":"Rotating bomb calorimetry","tml_elements":["ePropName","eMethodName"]},"tml_elements":["ReactionStateChangeProp"]},"tml_elements":["PropertyGroup"]}}],"eExpPurpose":"Principal objective of the work","nReactionDataNumber":1,"sContributor":"TRC","eReactionType":"Combustion with oxygen","tml_elements":["nReactionDataNumber","Participant","eExpPurpose","sCompiler","sContributor","dateDateAdded","eReactionType","Property","NumValues"],"Participant":[{"RegNum":{"nOrgNum":1,"tml_elements":["nOrgNum"]},"nStoichiometricCoef":"2","tml_elements":["RegNum","nStoichiometricCoef","ePhase"],"ePhase":"Solution 1"},{"nSampleNm":1,"nStoichiometricCoef":"-1","RegNum":{"nOrgNum":6,"tml_elements":["nOrgNum"]},"ePhase":"Crystal","tml_elements":["RegNum","nSampleNm","nStoichiometricCoef","ePhase"]},{"nStoichiometricCoef":"16","RegNum":{"nOrgNum":2,"tml_elements":["nOrgNum"]},"tml_elements":["RegNum","nStoichiometricCoef","ePhase"],"ePhase":"Ideal gas"},{"RegNum":{"tml_elements":["nOrgNum"],"nOrgNum":3},"nStoichiometricCoef":"2","ePhase":"Ideal gas","tml_elements":["RegNum","nStoichiometricCoef","ePhase"]},{"ePhase":"Liquid","tml_elements":["RegNum","nStoichiometricCoef","ePhase"],"nStoichiometricCoef":"13","RegNum":{"tml_elements":["nOrgNum"],"nOrgNum":4}},{"nStoichiometricCoef":"-25.5","RegNum":{"nOrgNum":5,"tml_elements":["nOrgNum"]},"ePhase":"Ideal gas","tml_elements":["RegNum","nStoichiometricCoef","ePhase"]}]},{"nReactionDataNumber":2,"sContributor":"TRC","eReactionType":"Combustion with oxygen","tml_elements":["nReactionDataNumber","Participant","eExpPurpose","sCompiler","sContributor","dateDateAdded","eReactionType","Property","NumValues"],"Participant":[{"ePhase":"Solution 1","tml_elements":["RegNum","nStoichiometricCoef","ePhase"],"RegNum":{"nOrgNum":1,"tml_elements":["nOrgNum"]},"nStoichiometricCoef":"2"},{"tml_elements":["RegNum","nSampleNm","nStoichiometricCoef","ePhase"],"ePhase":"Crystal","RegNum":{"tml_elements":["nOrgNum"],"nOrgNum":7},"nStoichiometricCoef":"-1","nSampleNm":1},{"tml_elements":["RegNum","nStoichiometricCoef","ePhase"],"ePhase":"Ideal gas","RegNum":{"tml_elements":["nOrgNum"],"nOrgNum":2},"nStoichiometricCoef":"17"},{"tml_elements":["RegNum","nStoichiometricCoef","ePhase"],"ePhase":"Ideal gas","RegNum":{"tml_elements":["nOrgNum"],"nOrgNum":3},"nStoichiometricCoef":"2.5"},{"nStoichiometricCoef":"10.5","RegNum":{"tml_elements":["nOrgNum"],"nOrgNum":4},"tml_elements":["RegNum","nStoichiometricCoef","ePhase"],"ePhase":"Liquid"},{"RegNum":{"tml_elements":["nOrgNum"],"nOrgNum":5},"nStoichiometricCoef":"-25.25","ePhase":"Ideal gas","tml_elements":["RegNum","nStoichiometricCoef","ePhase"]}],"sCompiler":"JAB","dateDateAdded":"7/9/2007","NumValues":[{"VariableValue":[],"PropertyValue":[{"nPropDigits":6,"nPropNumber":1,"tml_elements":["nPropNumber","nPropValue","nPropDigits","CombinedUncertainty"],"CombinedUncertainty":{"nCombUncertAssessNum":1,"nCombExpandUncertValue":10.8,"tml_elements":["nCombUncertAssessNum","nCombExpandUncertValue"]},"nPropValue":-27877.9}],"tml_elements":["PropertyValue"]}],"Property":[{"Property-MethodID":{"tml_elements":["PropertyGroup"],"PropertyGroup":{"ReactionStateChangeProp":{"ePropName":"Specific internal energy of reaction at constant volume, J/g","eMethodName":"Rotating bomb calorimetry","tml_elements":["ePropName","eMethodName"]},"tml_elements":["ReactionStateChangeProp"]}},"nTemperatureDigits":5,"CombinedUncertainty":{"sCombUncertEvaluator":"Data file compiler","nCombUncertAssessNum":1,"eCombUncertEvalMethod":"Propagation of evaluated standard uncertainties","nCombUncertLevOfConfid":95,"tml_elements":["nCombUncertAssessNum","sCombUncertEvaluator","eCombUncertEvalMethod","nCombUncertLevOfConfid"]},"nTemperature-K":"298.15","nPressureDigits":4,"nPressure-kPa":"101.3","nPropNumber":1,"tml_elements":["nPropNumber","Property-MethodID","nTemperature-K","nTemperatureDigits","nPressure-kPa","nPressureDigits","CombinedUncertainty"]}],"eExpPurpose":"Principal objective of the work"}]}