{"ReactionData":[{"Property":[{"CombinedUncertainty":{"nCombUncertLevOfConfid":95,"eCombUncertEvalMethod":"Propagation of evaluated standard uncertainties","tml_elements":["nCombUncertAssessNum","sCombUncertEvaluator","eCombUncertEvalMethod","nCombUncertLevOfConfid"],"sCombUncertEvaluator":"Data file compiler","nCombUncertAssessNum":1},"tml_elements":["nPropNumber","Property-MethodID","CombinedUncertainty"],"nPropNumber":1,"Property-MethodID":{"tml_elements":["PropertyGroup"],"PropertyGroup":{"ReactionEquilibriumProp":{"eMethodName":"Dynamic equilibration","ePropName":"Equilibrium constant in terms of partial pressure, kPa^n","tml_elements":["ePropName","eMethodName"]},"tml_elements":["ReactionEquilibriumProp"]}}}],"eExpPurpose":"Principal objective of the work","dateDateAdded":"10/29/2013","sCompiler":"AB","NumValues":[{"PropertyValue":[{"nPropValue":0.000163,"CombinedUncertainty":{"tml_elements":["nCombUncertAssessNum","nCombExpandUncertValue"],"nCombExpandUncertValue":6.5e-05,"nCombUncertAssessNum":1},"nPropDigits":3,"nPropNumber":1,"tml_elements":["nPropNumber","nPropValue","nPropDigits","CombinedUncertainty"]}],"tml_elements":["PropertyValue"],"VariableValue":[]},{"VariableValue":[],"PropertyValue":[{"CombinedUncertainty":{"nCombUncertAssessNum":1,"nCombExpandUncertValue":0.00024,"tml_elements":["nCombUncertAssessNum","nCombExpandUncertValue"]},"nPropValue":0.000598,"nPropDigits":3,"nPropNumber":1,"tml_elements":["nPropNumber","nPropValue","nPropDigits","CombinedUncertainty"]}],"tml_elements":["PropertyValue"]},{"VariableValue":[],"tml_elements":["PropertyValue"],"PropertyValue":[{"nPropNumber":1,"nPropDigits":3,"tml_elements":["nPropNumber","nPropValue","nPropDigits","CombinedUncertainty"],"CombinedUncertainty":{"nCombUncertAssessNum":1,"tml_elements":["nCombUncertAssessNum","nCombExpandUncertValue"],"nCombExpandUncertValue":0.000151},"nPropValue":0.000378}]},{"tml_elements":["PropertyValue"],"PropertyValue":[{"tml_elements":["nPropNumber","nPropValue","nPropDigits","CombinedUncertainty"],"nPropDigits":3,"nPropNumber":1,"CombinedUncertainty":{"nCombUncertAssessNum":1,"tml_elements":["nCombUncertAssessNum","nCombExpandUncertValue"],"nCombExpandUncertValue":0.00056},"nPropValue":0.0014}],"VariableValue":[]},{"VariableValue":[],"PropertyValue":[{"nPropDigits":3,"nPropNumber":1,"tml_elements":["nPropNumber","nPropValue","nPropDigits","CombinedUncertainty"],"CombinedUncertainty":{"nCombExpandUncertValue":0.00058,"tml_elements":["nCombUncertAssessNum","nCombExpandUncertValue"],"nCombUncertAssessNum":1},"nPropValue":0.00145}],"tml_elements":["PropertyValue"]},{"VariableValue":[],"tml_elements":["PropertyValue"],"PropertyValue":[{"CombinedUncertainty":{"nCombUncertAssessNum":1,"tml_elements":["nCombUncertAssessNum","nCombExpandUncertValue"],"nCombExpandUncertValue":0.00117},"nPropValue":0.00291,"nPropNumber":1,"nPropDigits":3,"tml_elements":["nPropNumber","nPropValue","nPropDigits","CombinedUncertainty"]}]},{"VariableValue":[],"PropertyValue":[{"CombinedUncertainty":{"nCombUncertAssessNum":1,"nCombExpandUncertValue":0.00163,"tml_elements":["nCombUncertAssessNum","nCombExpandUncertValue"]},"nPropValue":0.00407,"tml_elements":["nPropNumber","nPropValue","nPropDigits","CombinedUncertainty"],"nPropDigits":3,"nPropNumber":1}],"tml_elements":["PropertyValue"]},{"PropertyValue":[{"nPropNumber":1,"nPropDigits":3,"tml_elements":["nPropNumber","nPropValue","nPropDigits","CombinedUncertainty"],"CombinedUncertainty":{"nCombUncertAssessNum":1,"nCombExpandUncertValue":0.00241,"tml_elements":["nCombUncertAssessNum","nCombExpandUncertValue"]},"nPropValue":0.00601}],"tml_elements":["PropertyValue"],"VariableValue":[]},{"VariableValue":[],"tml_elements":["PropertyValue"],"PropertyValue":[{"tml_elements":["nPropNumber","nPropValue","nPropDigits","CombinedUncertainty"],"nPropNumber":1,"nPropDigits":3,"nPropValue":0.00814,"CombinedUncertainty":{"tml_elements":["nCombUncertAssessNum","nCombExpandUncertValue"],"nCombExpandUncertValue":0.00326,"nCombUncertAssessNum":1}}]}],"tml_elements":["nReactionDataNumber","Participant","eExpPurpose","sCompiler","sContributor","dateDateAdded","eReactionType","Property","NumValues"],"Participant":[{"tml_elements":["RegNum","nSampleNm","nStoichiometricCoef","ePhase"],"ePhase":"Crystal","RegNum":{"nOrgNum":4,"tml_elements":["nOrgNum"]},"nStoichiometricCoef":"1","nSampleNm":1},{"tml_elements":["RegNum","nSampleNm","nStoichiometricCoef","ePhase"],"ePhase":"Gas","nStoichiometricCoef":".5","nSampleNm":1,"RegNum":{"nOrgNum":2,"tml_elements":["nOrgNum"]}},{"RegNum":{"nOrgNum":1,"tml_elements":["nOrgNum"]},"nSampleNm":1,"nStoichiometricCoef":"-1","ePhase":"Crystal","tml_elements":["RegNum","nSampleNm","nStoichiometricCoef","ePhase"]}],"eReactionType":"Other reactions","nReactionDataNumber":1,"sContributor":"TRC"},{"eReactionType":"Other reactions","tml_elements":["nReactionDataNumber","Participant","eExpPurpose","sCompiler","sContributor","dateDateAdded","eReactionType","Property","NumValues"],"Participant":[{"ePhase":"Crystal","tml_elements":["RegNum","nSampleNm","nStoichiometricCoef","ePhase"],"RegNum":{"nOrgNum":3,"tml_elements":["nOrgNum"]},"nSampleNm":1,"nStoichiometricCoef":"-1"},{"nSampleNm":1,"nStoichiometricCoef":".5","RegNum":{"tml_elements":["nOrgNum"],"nOrgNum":2},"ePhase":"Gas","tml_elements":["RegNum","nSampleNm","nStoichiometricCoef","ePhase"]},{"tml_elements":["RegNum","nSampleNm","nStoichiometricCoef","ePhase"],"ePhase":"Crystal","RegNum":{"nOrgNum":1,"tml_elements":["nOrgNum"]},"nStoichiometricCoef":"1","nSampleNm":1}],"nReactionDataNumber":2,"sContributor":"TRC","eExpPurpose":"Principal objective of the work","Property":[{"Property-MethodID":{"PropertyGroup":{"tml_elements":["ReactionEquilibriumProp"],"ReactionEquilibriumProp":{"ePropName":"Equilibrium constant in terms of partial pressure, kPa^n","eMethodName":"Dynamic equilibration","tml_elements":["ePropName","eMethodName"]}},"tml_elements":["PropertyGroup"]},"nPropNumber":1,"tml_elements":["nPropNumber","Property-MethodID","CombinedUncertainty"],"CombinedUncertainty":{"nCombUncertLevOfConfid":95,"eCombUncertEvalMethod":"Propagation of evaluated standard uncertainties","tml_elements":["nCombUncertAssessNum","sCombUncertEvaluator","eCombUncertEvalMethod","nCombUncertLevOfConfid"],"sCombUncertEvaluator":"Data file compiler","nCombUncertAssessNum":1}}],"sCompiler":"AB","dateDateAdded":"10/29/2013","NumValues":[{"tml_elements":["PropertyValue"],"PropertyValue":[{"tml_elements":["nPropNumber","nPropValue","nPropDigits","CombinedUncertainty"],"nPropNumber":1,"nPropDigits":3,"CombinedUncertainty":{"nCombUncertAssessNum":1,"tml_elements":["nCombUncertAssessNum","nCombExpandUncertValue"],"nCombExpandUncertValue":5.8e-05},"nPropValue":0.000145}],"VariableValue":[]},{"tml_elements":["PropertyValue"],"PropertyValue":[{"tml_elements":["nPropNumber","nPropValue","nPropDigits","CombinedUncertainty"],"nPropNumber":1,"nPropDigits":3,"CombinedUncertainty":{"nCombUncertAssessNum":1,"tml_elements":["nCombUncertAssessNum","nCombExpandUncertValue"],"nCombExpandUncertValue":4.6e-05},"nPropValue":0.000116}],"VariableValue":[]},{"VariableValue":[],"tml_elements":["PropertyValue"],"PropertyValue":[{"tml_elements":["nPropNumber","nPropValue","nPropDigits","CombinedUncertainty"],"nPropNumber":1,"nPropDigits":3,"CombinedUncertainty":{"nCombUncertAssessNum":1,"nCombExpandUncertValue":4.1e-05,"tml_elements":["nCombUncertAssessNum","nCombExpandUncertValue"]},"nPropValue":0.000102}]},{"PropertyValue":[{"nPropValue":0.000256,"CombinedUncertainty":{"nCombExpandUncertValue":0.000103,"tml_elements":["nCombUncertAssessNum","nCombExpandUncertValue"],"nCombUncertAssessNum":1},"nPropNumber":1,"nPropDigits":3,"tml_elements":["nPropNumber","nPropValue","nPropDigits","CombinedUncertainty"]}],"tml_elements":["PropertyValue"],"VariableValue":[]},{"tml_elements":["PropertyValue"],"PropertyValue":[{"tml_elements":["nPropNumber","nPropValue","nPropDigits","CombinedUncertainty"],"nPropNumber":1,"nPropDigits":3,"CombinedUncertainty":{"tml_elements":["nCombUncertAssessNum","nCombExpandUncertValue"],"nCombExpandUncertValue":3.49e-05,"nCombUncertAssessNum":1},"nPropValue":8.72e-05}],"VariableValue":[]},{"tml_elements":["PropertyValue"],"PropertyValue":[{"nPropValue":0.000388,"CombinedUncertainty":{"nCombUncertAssessNum":1,"nCombExpandUncertValue":0.000155,"tml_elements":["nCombUncertAssessNum","nCombExpandUncertValue"]},"tml_elements":["nPropNumber","nPropValue","nPropDigits","CombinedUncertainty"],"nPropNumber":1,"nPropDigits":3}],"VariableValue":[]},{"VariableValue":[],"tml_elements":["PropertyValue"],"PropertyValue":[{"nPropDigits":3,"nPropNumber":1,"tml_elements":["nPropNumber","nPropValue","nPropDigits","CombinedUncertainty"],"CombinedUncertainty":{"tml_elements":["nCombUncertAssessNum","nCombExpandUncertValue"],"nCombExpandUncertValue":0.00028,"nCombUncertAssessNum":1},"nPropValue":0.000698}]},{"PropertyValue":[{"nPropValue":0.00093,"CombinedUncertainty":{"nCombExpandUncertValue":0.000373,"tml_elements":["nCombUncertAssessNum","nCombExpandUncertValue"],"nCombUncertAssessNum":1},"nPropDigits":3,"nPropNumber":1,"tml_elements":["nPropNumber","nPropValue","nPropDigits","CombinedUncertainty"]}],"tml_elements":["PropertyValue"],"VariableValue":[]},{"VariableValue":[],"PropertyValue":[{"tml_elements":["nPropNumber","nPropValue","nPropDigits","CombinedUncertainty"],"nPropDigits":3,"nPropNumber":1,"CombinedUncertainty":{"tml_elements":["nCombUncertAssessNum","nCombExpandUncertValue"],"nCombExpandUncertValue":0.00085,"nCombUncertAssessNum":1},"nPropValue":0.00213}],"tml_elements":["PropertyValue"]},{"PropertyValue":[{"CombinedUncertainty":{"tml_elements":["nCombUncertAssessNum","nCombExpandUncertValue"],"nCombExpandUncertValue":0.00225,"nCombUncertAssessNum":1},"nPropValue":0.00562,"nPropDigits":3,"nPropNumber":1,"tml_elements":["nPropNumber","nPropValue","nPropDigits","CombinedUncertainty"]}],"tml_elements":["PropertyValue"],"VariableValue":[]},{"tml_elements":["PropertyValue"],"PropertyValue":[{"CombinedUncertainty":{"nCombUncertAssessNum":1,"nCombExpandUncertValue":0.00248,"tml_elements":["nCombUncertAssessNum","nCombExpandUncertValue"]},"nPropValue":0.0062,"tml_elements":["nPropNumber","nPropValue","nPropDigits","CombinedUncertainty"],"nPropDigits":3,"nPropNumber":1}],"VariableValue":[]},{"PropertyValue":[{"nPropValue":0.0157,"CombinedUncertainty":{"nCombExpandUncertValue":0.0063,"tml_elements":["nCombUncertAssessNum","nCombExpandUncertValue"],"nCombUncertAssessNum":1},"tml_elements":["nPropNumber","nPropValue","nPropDigits","CombinedUncertainty"],"nPropNumber":1,"nPropDigits":3}],"tml_elements":["PropertyValue"],"VariableValue":[]},{"VariableValue":[],"tml_elements":["PropertyValue"],"PropertyValue":[{"tml_elements":["nPropNumber","nPropValue","nPropDigits","CombinedUncertainty"],"nPropNumber":1,"nPropDigits":3,"CombinedUncertainty":{"nCombUncertAssessNum":1,"nCombExpandUncertValue":0.0086,"tml_elements":["nCombUncertAssessNum","nCombExpandUncertValue"]},"nPropValue":0.0215}]}]}],"tml_elements":["Version","Citation","Compound","ReactionData"],"Citation":{"eSourceType":"Original","sKeyword":["Thermal decomposition","Tetraphosphorus decaoxide","Tetraphosphorus hexoxide","Proton conductor","Fuel cell","Enthalpy","Entropy","Gibbs energy"],"sAuthor":["Hatada, N.[Naoyuki]","Toyoura, K.[Kazuaki]","Nose, Y.[Yoshitaro]","Uda, T.[Tetsuya]"],"tml_elements":["TRCRefID","eType","eSourceType","sAuthor","sPubName","yrPubYr","dateCit","sTitle","sAbstract","sKeyword","sDOI","sVol","sPage"],"sDOI":"10.1016/j.jct.2013.02.009","sTitle":"Vapour pressure measurements on lanthanum polyphosphate and ultraphosphate by the transpiration method","sAbstract":"The vapour pressure of P4O10 produced by decomposition of LaP3O9 and LaP5O14 (LaP3O9 --- LaPO4 + 1/2  P4O10; LaP5O14 --- LaP3O9 + 1/2 P4O10) was measured by the transpiration method over the temperature  ranges (1123 to 1323) K and (923 to 1173) K, respectively. The standard thermodynamic quantities of  LaP3O9 and LaP5O14 were derived by the use of second-law method and Neumann Kopp rule. The derived  thermodynamic quantities are consistent with the phase equilibria in the (La2O3 + P2O5) system reported  previously. There is a significant discrepancy between the present results and the literature data for LaP3O9 at T = 298.15 K, possibly due to the lack of accurate thermodynamic values of LaPO4 in the past. The  thermal and chemical stabilities of LaP3O9 and LaP5O14 were analysed toward their proposed use as proton-  conducting solid electrolytes in fuel cells. LaP3O9 is considered more promising from the viewpoint of  proton conductivity and thermal stability. In the presence of water vapour or hydrogen gas, the decomposition  of LaP3O9 and LaP5O14 would be accelerated significantly.","TRCRefID":{"sAuthor2":"toy","sAuthor1":"hat","nAuthorn":"0","tml_elements":["yrYrPub","sAuthor1","sAuthor2","nAuthorn"],"yrYrPub":"2013"},"dateCit":"2020-09-29","sPubName":"J. Chem. Thermodyn.","yrPubYr":"2013","eType":"journal","sVol":"61","sPage":"147-153"},"Compound":[{"sFormulaMolec":"LaO9P3","Sample":[{"tml_elements":["nSampleNm","eSource","purity"],"purity":[{"tml_elements":["nStep","ePurifMethod"],"nStep":1,"ePurifMethod":["Dried by oven heating"]},{"eAnalMeth":["Estimated by the compiler"],"nPurityMass":98,"nStep":2,"nPurityMassDigits":2,"tml_elements":["nStep","nPurityMass","nPurityMassDigits","eAnalMeth"]}],"nSampleNm":1,"eSource":"Synthesized by the authors"}],"tml_elements":["RegNum","sStandardInChI","sStandardInChIKey","sCommonName","sFormulaMolec","Sample"],"sCommonName":["lanthanum metaphosphate","lanthanum metaphosphate (LaP3O9)"],"sStandardInChIKey":"BHXDERWBLNFBLF-UHFFFAOYSA-K","sStandardInChI":"InChI=1S/La.H3O9P3/c;1-10(2)7-11(3,4)9-12(5,6)8-10/h;(H,1,2)(H,3,4)(H,5,6)/q+3;/p-3","RegNum":{"tml_elements":["nOrgNum"],"nOrgNum":1}},{"RegNum":{"tml_elements":["nOrgNum"],"nOrgNum":2},"sStandardInChI":"InChI=1S/O10P4/c1-11-5-12(2)8-13(3,6-11)10-14(4,7-11)9-12","sStandardInChIKey":"DLYUQMMRRRQYAE-UHFFFAOYSA-N","sCommonName":["tetraphosphorus decaoxide","phosphorus oxide (P4O10)","phosphorus pentoxide dimer"],"tml_elements":["RegNum","sStandardInChI","sStandardInChIKey","sCommonName","sFormulaMolec","Sample"],"Sample":[{"eStatus":"notDescribed","tml_elements":["nSampleNm","eStatus","purity"],"purity":[],"nSampleNm":1}],"sFormulaMolec":"O10P4"},{"sFormulaMolec":"LaO14P5","Sample":[{"eSource":"Synthesized by the authors","nSampleNm":1,"purity":[{"ePurifMethod":["Dried by oven heating"],"nStep":1,"tml_elements":["nStep","ePurifMethod"]},{"nPurityMassDigits":2,"tml_elements":["nStep","nPurityMass","nPurityMassDigits","eAnalMeth"],"nStep":2,"eAnalMeth":["Estimated by the compiler"],"nPurityMass":98}],"tml_elements":["nSampleNm","eSource","purity"]}],"tml_elements":["RegNum","sStandardInChI","sStandardInChIKey","sCommonName","sFormulaMolec","Sample"],"sCommonName":["lanthanum pentaphosphate","lanthanum phosphate (LaP5O14)","lanthanum ultraphosphate"],"sStandardInChIKey":"QYPINWMAGZVANZ-UHFFFAOYSA-K","sStandardInChI":"InChI=1S/La.H3O14P5/c;1-15(2)9-18(7)11-16(3,4)12-19(8,10-15)14-17(5,6)13-18/h;(H,1,2)(H,3,4)(H,5,6)/q+3;/p-3","RegNum":{"tml_elements":["nOrgNum"],"nOrgNum":3}},{"tml_elements":["RegNum","sStandardInChI","sStandardInChIKey","sCommonName","sFormulaMolec","Sample"],"Sample":[{"nSampleNm":1,"tml_elements":["nSampleNm","eStatus","purity"],"eStatus":"notDescribed","purity":[]}],"sCommonName":["lanthanum orthophosphate"],"sFormulaMolec":"LaO4P","RegNum":{"tml_elements":["nOrgNum"],"nOrgNum":4},"sStandardInChI":"InChI=1S/La.H3O4P/c;1-5(2,3)4/h;(H3,1,2,3,4)/q+3;/p-3","sStandardInChIKey":"LQFNMFDUAPEJRY-UHFFFAOYSA-K"}],"THERMOML_MD5_CHECKSUM":"af0f54a5a43eacb98b232b9793ef5cc3","Version":{"nVersionMinor":0,"nVersionMajor":2,"tml_elements":["nVersionMajor","nVersionMinor"]}}