{"Citation":{"sAuthor":["Freitas, V. L. S.[Vera L. S.]","Gomes, J. R. B.[Jose R. B.]","Ribeiro da Silva, M. D. M. C.[Maria D. M. C.]"],"sKeyword":["Combustion calorimetry","Enthalpy of sublimation","Enthalpy of formation","Vapour pressure","2,7-Di-tert-butyl-9,9-dimethylxanthene conformers","Xanthene derivatives"],"tml_elements":["TRCRefID","eType","eSourceType","sAuthor","sPubName","yrPubYr","dateCit","sTitle","sAbstract","sKeyword","sDOI","sVol","sPage"],"sDOI":"10.1016/j.jct.2016.11.020","sTitle":"Thermochemical studies on two alkyl-bulky substituted xanthene derivatives: 9,9-dimethylxanthene and 2,7-di-tert-butyl-9,9-dimethylxanthene","sAbstract":"Thermodynamic properties of 9,9-dimethylxanthene and 2,7-di-tert-butyl-9,9-dimethylxanthene for the condensed and gas states were derived from experimental and computational studies. Static-bomb combustion calorimetry, vacuum drop microcalorimetry and the Knudsen effusion techniques were used. Computational calculations of the enthalpies of hypothetical reactions in the gaseous phase, using the G3(MP2)//B3LYP composite method, were performed for the two xanthene derivatives. Natural bond orbital (NBO) calculations were also performed to ascertain the structure and reactivity of these compounds. The energetic effects caused by replacing hydrogen atoms in the xanthene moiety by methyl and tertbutyl groups yielding 9,9-dimethylxanthene and 2,7-di-tert-butyl-9,9-dimethylxanthene species were determined from direct comparison of their standard (po = 0.1 MPa) molar enthalpies of formation in the gaseous phase, at T = 298.15 K.","TRCRefID":{"tml_elements":["yrYrPub","sAuthor1","sAuthor2","nAuthorn"],"nAuthorn":"0","sAuthor2":"gom","sAuthor1":"fre","yrYrPub":"2017"},"eSourceType":"Original","eType":"journal","sVol":"106","sPage":"168-177","dateCit":"2020-09-29","yrPubYr":"2017","sPubName":"J. Chem. Thermodyn."},"Version":{"tml_elements":["nVersionMajor","nVersionMinor"],"nVersionMajor":2,"nVersionMinor":0},"PureOrMixtureData":[{"sCompiler":"AB","nPureOrMixtureDataNumber":1,"dateDateAdded":"6/27/2017","NumValues":[{"VariableValue":[],"tml_elements":["PropertyValue"],"PropertyValue":[{"tml_elements":["nPropNumber","nPropValue","nPropDigits","CombinedUncertainty"],"nPropDigits":4,"nPropNumber":1,"CombinedUncertainty":{"nCombUncertAssessNum":1,"tml_elements":["nCombUncertAssessNum","nCombExpandUncertValue"],"nCombExpandUncertValue":0.7},"nPropValue":316.2}]}],"eExpPurpose":"Principal objective of the work","Property":[{"CombinedUncertainty":{"sCombUncertEvaluator":"Data file compiler","nCombUncertAssessNum":1,"nCombUncertLevOfConfid":95,"eCombUncertEvalMethod":"Propagation of evaluated standard uncertainties","tml_elements":["nCombUncertAssessNum","sCombUncertEvaluator","eCombUncertEvalMethod","nCombUncertLevOfConfid"]},"nPropNumber":1,"Property-MethodID":{"PropertyGroup":{"tml_elements":["PhaseTransition"],"PhaseTransition":{"sMethodName":"DTA","ePropName":"Normal melting temperature, K","tml_elements":["ePropName","sMethodName"]}},"tml_elements":["PropertyGroup"]},"PropPhaseID":{"tml_elements":["ePropPhase"],"ePropPhase":"Crystal"},"tml_elements":["nPropNumber","Property-MethodID","PropPhaseID","ePresentation","CombinedUncertainty"],"ePresentation":"Direct value, X"}],"sContributor":"TRC","PhaseID":[{"tml_elements":["ePhase"],"ePhase":"Crystal"},{"ePhase":"Liquid","tml_elements":["ePhase"]},{"tml_elements":["ePhase"],"ePhase":"Air at 1 atmosphere"}],"tml_elements":["nPureOrMixtureDataNumber","Component","eExpPurpose","sCompiler","sContributor","dateDateAdded","Property","PhaseID","NumValues"],"Component":[{"RegNum":{"nOrgNum":4,"tml_elements":["nOrgNum"]},"nSampleNm":1,"tml_elements":["RegNum","nSampleNm"]}]},{"tml_elements":["nPureOrMixtureDataNumber","Component","eExpPurpose","sCompiler","sContributor","dateDateAdded","Property","PhaseID","Variable","NumValues"],"PhaseID":[{"tml_elements":["ePhase"],"ePhase":"Crystal"},{"tml_elements":["ePhase"],"ePhase":"Gas"}],"Component":[{"nSampleNm":1,"RegNum":{"tml_elements":["nOrgNum"],"nOrgNum":4},"tml_elements":["RegNum","nSampleNm"]}],"sContributor":"TRC","Variable":[{"nVarNumber":1,"VarPhaseID":{"eVarPhase":"Crystal","tml_elements":["eVarPhase"]},"tml_elements":["nVarNumber","VariableID","VarPhaseID"],"VariableID":{"tml_elements":["VariableType"],"VariableType":{"eTemperature":"Temperature, K","tml_elements":["eTemperature"]}}}],"Property":[{"ePresentation":"Direct value, X","tml_elements":["nPropNumber","Property-MethodID","PropPhaseID","ePresentation","CombinedUncertainty"],"Property-MethodID":{"PropertyGroup":{"tml_elements":["PhaseTransition"],"PhaseTransition":{"tml_elements":["ePropName","eMethodName"],"ePropName":"Molar enthalpy of vaporization or sublimation, kJ/mol","eMethodName":"Static calorimetry"}},"tml_elements":["PropertyGroup"]},"PropPhaseID":{"ePropPhase":"Crystal","tml_elements":["ePropPhase"]},"nPropNumber":1,"CombinedUncertainty":{"nCombUncertAssessNum":1,"sCombUncertEvaluator":"Data file compiler","tml_elements":["nCombUncertAssessNum","sCombUncertEvaluator","eCombUncertEvalMethod","nCombUncertLevOfConfid"],"eCombUncertEvalMethod":"Propagation of evaluated standard uncertainties","nCombUncertLevOfConfid":95}}],"eExpPurpose":"Principal objective of the work","nPureOrMixtureDataNumber":2,"dateDateAdded":"6/27/2017","sCompiler":"AB","NumValues":[{"tml_elements":["VariableValue","PropertyValue"],"PropertyValue":[{"nPropDigits":3,"nPropNumber":1,"tml_elements":["nPropNumber","nPropValue","nPropDigits","CombinedUncertainty"],"nPropValue":90,"CombinedUncertainty":{"nCombUncertAssessNum":1,"tml_elements":["nCombUncertAssessNum","nCombExpandUncertValue"],"nCombExpandUncertValue":2.4}}],"VariableValue":[{"nVarValue":298.15,"nVarNumber":1,"tml_elements":["nVarNumber","nVarValue","nVarDigits"],"nVarDigits":5}]}]},{"sContributor":"TRC","tml_elements":["nPureOrMixtureDataNumber","Component","eExpPurpose","sCompiler","sContributor","dateDateAdded","Property","PhaseID","Variable","NumValues"],"PhaseID":[{"tml_elements":["ePhase"],"ePhase":"Gas"},{"tml_elements":["ePhase"],"ePhase":"Crystal"}],"Variable":[{"VarPhaseID":{"tml_elements":["eVarPhase"],"eVarPhase":"Gas"},"nVarNumber":1,"tml_elements":["nVarNumber","VariableID","VarPhaseID"],"VariableID":{"tml_elements":["VariableType"],"VariableType":{"tml_elements":["eTemperature"],"eTemperature":"Temperature, K"}}}],"Component":[{"RegNum":{"tml_elements":["nOrgNum"],"nOrgNum":4},"nSampleNm":1,"tml_elements":["RegNum","nSampleNm"]}],"NumValues":[{"VariableValue":[{"nVarNumber":1,"tml_elements":["nVarNumber","nVarValue","nVarDigits"],"nVarDigits":5,"nVarValue":338.44}],"tml_elements":["VariableValue","PropertyValue"],"PropertyValue":[{"nPropDigits":4,"nPropNumber":1,"tml_elements":["nPropNumber","nPropValue","nPropDigits","CombinedUncertainty"],"nPropValue":100.2,"CombinedUncertainty":{"nCombUncertAssessNum":1,"tml_elements":["nCombUncertAssessNum","nCombExpandUncertValue"],"nCombExpandUncertValue":2.6}}]}],"nPureOrMixtureDataNumber":3,"dateDateAdded":"6/27/2017","sCompiler":"AB","Property":[{"nRefPressure":"100","eRefStateType":"Reference phase with the same composition at fixed temperature and pressure","nRefPressureDigits":1,"RefPhaseID":{"tml_elements":["eRefPhase"],"eRefPhase":"Crystal"},"Property-MethodID":{"tml_elements":["PropertyGroup"],"PropertyGroup":{"tml_elements":["HeatCapacityAndDerivedProp"],"HeatCapacityAndDerivedProp":{"tml_elements":["ePropName","eMethodName"],"ePropName":"Molar enthalpy, kJ/mol","eMethodName":"Drop calorimetry"}}},"CombinedUncertainty":{"sCombUncertEvaluator":"Data file compiler","nCombUncertAssessNum":1,"eCombUncertEvalMethod":"Propagation of evaluated standard uncertainties","nCombUncertLevOfConfid":95,"tml_elements":["nCombUncertAssessNum","sCombUncertEvaluator","eCombUncertEvalMethod","nCombUncertLevOfConfid"]},"nRefTemp":"298.15","ePresentation":"Difference with the reference state, X-X(REF)","tml_elements":["nPropNumber","Property-MethodID","PropPhaseID","ePresentation","eRefStateType","nRefTemp","nRefTempDigits","nRefPressure","nRefPressureDigits","RefPhaseID","CombinedUncertainty"],"PropPhaseID":{"tml_elements":["ePropPhase"],"ePropPhase":"Gas"},"nPropNumber":1,"nRefTempDigits":5}],"eExpPurpose":"Principal objective of the work"},{"sContributor":"TRC","tml_elements":["nPureOrMixtureDataNumber","Component","eExpPurpose","sCompiler","sContributor","dateDateAdded","Property","PhaseID","NumValues"],"PhaseID":[{"tml_elements":["ePhase"],"ePhase":"Crystal"},{"tml_elements":["ePhase"],"ePhase":"Liquid"},{"tml_elements":["ePhase"],"ePhase":"Air at 1 atmosphere"}],"Component":[{"RegNum":{"tml_elements":["nOrgNum"],"nOrgNum":5},"nSampleNm":1,"tml_elements":["RegNum","nSampleNm"]}],"dateDateAdded":"6/27/2017","nPureOrMixtureDataNumber":4,"sCompiler":"AB","NumValues":[{"tml_elements":["PropertyValue"],"PropertyValue":[{"tml_elements":["nPropNumber","nPropValue","nPropDigits","CombinedUncertainty"],"nPropNumber":1,"nPropDigits":4,"nPropValue":466.8,"CombinedUncertainty":{"nCombExpandUncertValue":0.8,"tml_elements":["nCombUncertAssessNum","nCombExpandUncertValue"],"nCombUncertAssessNum":1}}],"VariableValue":[]}],"eExpPurpose":"Principal objective of the work","Property":[{"Property-MethodID":{"PropertyGroup":{"PhaseTransition":{"tml_elements":["ePropName","sMethodName"],"sMethodName":"DTA","ePropName":"Normal melting temperature, K"},"tml_elements":["PhaseTransition"]},"tml_elements":["PropertyGroup"]},"CombinedUncertainty":{"tml_elements":["nCombUncertAssessNum","sCombUncertEvaluator","eCombUncertEvalMethod","nCombUncertLevOfConfid"],"nCombUncertLevOfConfid":95,"eCombUncertEvalMethod":"Propagation of evaluated standard uncertainties","nCombUncertAssessNum":1,"sCombUncertEvaluator":"Data file compiler"},"ePresentation":"Direct value, X","tml_elements":["nPropNumber","Property-MethodID","PropPhaseID","ePresentation","CombinedUncertainty"],"PropPhaseID":{"ePropPhase":"Crystal","tml_elements":["ePropPhase"]},"nPropNumber":1}]},{"sContributor":"TRC","PhaseID":[{"ePhase":"Crystal","tml_elements":["ePhase"]},{"tml_elements":["ePhase"],"ePhase":"Gas"}],"tml_elements":["nPureOrMixtureDataNumber","Component","eExpPurpose","sCompiler","sContributor","dateDateAdded","Property","PhaseID","Variable","NumValues"],"sCompiler":"AB","nPureOrMixtureDataNumber":5,"dateDateAdded":"6/27/2017","NumValues":[{"PropertyValue":[{"nPropNumber":1,"nPropDigits":4,"tml_elements":["nPropNumber","nPropValue","nPropDigits","CombinedUncertainty"],"nPropValue":120.3,"CombinedUncertainty":{"nCombExpandUncertValue":3,"tml_elements":["nCombUncertAssessNum","nCombExpandUncertValue"],"nCombUncertAssessNum":1}}],"tml_elements":["VariableValue","PropertyValue"],"VariableValue":[{"nVarValue":298.15,"tml_elements":["nVarNumber","nVarValue","nVarDigits"],"nVarDigits":5,"nVarNumber":1}]}],"Property":[{"CombinedUncertainty":{"sCombUncertEvaluator":"Data file compiler","nCombUncertAssessNum":1,"nCombUncertLevOfConfid":95,"eCombUncertEvalMethod":"Propagation of evaluated standard uncertainties","tml_elements":["nCombUncertAssessNum","sCombUncertEvaluator","eCombUncertEvalMethod","nCombUncertLevOfConfid"]},"nPropNumber":1,"Property-MethodID":{"tml_elements":["PropertyGroup"],"PropertyGroup":{"tml_elements":["PhaseTransition"],"PhaseTransition":{"ePropName":"Molar enthalpy of vaporization or sublimation, kJ/mol","eMethodName":"Static calorimetry","tml_elements":["ePropName","eMethodName"]}}},"PropPhaseID":{"tml_elements":["ePropPhase"],"ePropPhase":"Crystal"},"tml_elements":["nPropNumber","Property-MethodID","PropPhaseID","ePresentation","CombinedUncertainty"],"ePresentation":"Direct value, X"}],"eExpPurpose":"Principal objective of the work","Variable":[{"VariableID":{"tml_elements":["VariableType"],"VariableType":{"eTemperature":"Temperature, K","tml_elements":["eTemperature"]}},"VarPhaseID":{"tml_elements":["eVarPhase"],"eVarPhase":"Crystal"},"nVarNumber":1,"tml_elements":["nVarNumber","VariableID","VarPhaseID"]}],"Component":[{"RegNum":{"nOrgNum":5,"tml_elements":["nOrgNum"]},"nSampleNm":1,"tml_elements":["RegNum","nSampleNm"]}]},{"Component":[{"nSampleNm":1,"RegNum":{"nOrgNum":5,"tml_elements":["nOrgNum"]},"tml_elements":["RegNum","nSampleNm"]}],"tml_elements":["nPureOrMixtureDataNumber","Component","eExpPurpose","sCompiler","sContributor","dateDateAdded","Property","PhaseID","Variable","NumValues"],"PhaseID":[{"ePhase":"Crystal","tml_elements":["ePhase"]},{"ePhase":"Gas","tml_elements":["ePhase"]}],"sContributor":"TRC","Variable":[{"tml_elements":["nVarNumber","VariableID","VarPhaseID"],"VarPhaseID":{"eVarPhase":"Crystal","tml_elements":["eVarPhase"]},"nVarNumber":1,"VariableID":{"VariableType":{"eTemperature":"Temperature, K","tml_elements":["eTemperature"]},"tml_elements":["VariableType"]}}],"eExpPurpose":"Principal objective of the work","Property":[{"nPropNumber":1,"PropPhaseID":{"tml_elements":["ePropPhase"],"ePropPhase":"Crystal"},"tml_elements":["nPropNumber","Property-MethodID","PropPhaseID","ePresentation","CombinedUncertainty"],"ePresentation":"Direct value, X","CombinedUncertainty":{"nCombUncertAssessNum":1,"sCombUncertEvaluator":"Data file compiler","tml_elements":["nCombUncertAssessNum","sCombUncertEvaluator","eCombUncertEvalMethod","nCombUncertLevOfConfid"],"nCombUncertLevOfConfid":95,"eCombUncertEvalMethod":"Propagation of evaluated standard uncertainties"},"Property-MethodID":{"PropertyGroup":{"tml_elements":["VaporPBoilingTAzeotropTandP"],"VaporPBoilingTAzeotropTandP":{"sMethodName":"Calculated from knudsen effusion weight loss","ePropName":"Vapor or sublimation pressure, kPa","tml_elements":["ePropName","sMethodName"]}},"tml_elements":["PropertyGroup"]}}],"NumValues":[{"VariableValue":[{"nVarValue":364.13,"nVarNumber":1,"nVarDigits":5,"tml_elements":["nVarNumber","nVarValue","nVarDigits"]}],"tml_elements":["VariableValue","PropertyValue"],"PropertyValue":[{"nPropDigits":3,"nPropNumber":1,"tml_elements":["nPropNumber","nPropValue","nPropDigits","CombinedUncertainty"],"CombinedUncertainty":{"tml_elements":["nCombUncertAssessNum","nCombExpandUncertValue"],"nCombExpandUncertValue":6e-05,"nCombUncertAssessNum":1},"nPropValue":0.000111}]},{"PropertyValue":[{"nPropValue":0.000149,"CombinedUncertainty":{"nCombUncertAssessNum":1,"tml_elements":["nCombUncertAssessNum","nCombExpandUncertValue"],"nCombExpandUncertValue":6e-05},"nPropDigits":3,"nPropNumber":1,"tml_elements":["nPropNumber","nPropValue","nPropDigits","CombinedUncertainty"]}],"tml_elements":["VariableValue","PropertyValue"],"VariableValue":[{"nVarValue":366.17,"nVarNumber":1,"nVarDigits":5,"tml_elements":["nVarNumber","nVarValue","nVarDigits"]}]},{"VariableValue":[{"nVarValue":368.15,"nVarNumber":1,"tml_elements":["nVarNumber","nVarValue","nVarDigits"],"nVarDigits":5}],"PropertyValue":[{"CombinedUncertainty":{"nCombUncertAssessNum":1,"nCombExpandUncertValue":6e-05,"tml_elements":["nCombUncertAssessNum","nCombExpandUncertValue"]},"nPropValue":0.00017,"nPropDigits":3,"nPropNumber":1,"tml_elements":["nPropNumber","nPropValue","nPropDigits","CombinedUncertainty"]}],"tml_elements":["VariableValue","PropertyValue"]},{"tml_elements":["VariableValue","PropertyValue"],"PropertyValue":[{"nPropValue":0.000213,"CombinedUncertainty":{"nCombUncertAssessNum":1,"nCombExpandUncertValue":6e-05,"tml_elements":["nCombUncertAssessNum","nCombExpandUncertValue"]},"nPropNumber":1,"nPropDigits":3,"tml_elements":["nPropNumber","nPropValue","nPropDigits","CombinedUncertainty"]}],"VariableValue":[{"nVarValue":370.13,"nVarNumber":1,"tml_elements":["nVarNumber","nVarValue","nVarDigits"],"nVarDigits":5}]},{"PropertyValue":[{"CombinedUncertainty":{"nCombUncertAssessNum":1,"tml_elements":["nCombUncertAssessNum","nCombExpandUncertValue"],"nCombExpandUncertValue":6.1e-05},"nPropValue":0.000282,"tml_elements":["nPropNumber","nPropValue","nPropDigits","CombinedUncertainty"],"nPropDigits":3,"nPropNumber":1}],"tml_elements":["VariableValue","PropertyValue"],"VariableValue":[{"nVarValue":372.16,"nVarNumber":1,"nVarDigits":5,"tml_elements":["nVarNumber","nVarValue","nVarDigits"]}]},{"VariableValue":[{"nVarNumber":1,"tml_elements":["nVarNumber","nVarValue","nVarDigits"],"nVarDigits":5,"nVarValue":374.15}],"tml_elements":["VariableValue","PropertyValue"],"PropertyValue":[{"CombinedUncertainty":{"tml_elements":["nCombUncertAssessNum","nCombExpandUncertValue"],"nCombExpandUncertValue":6.1e-05,"nCombUncertAssessNum":1},"nPropValue":0.000321,"nPropNumber":1,"nPropDigits":3,"tml_elements":["nPropNumber","nPropValue","nPropDigits","CombinedUncertainty"]}]},{"VariableValue":[{"nVarValue":376.12,"tml_elements":["nVarNumber","nVarValue","nVarDigits"],"nVarDigits":5,"nVarNumber":1}],"PropertyValue":[{"nPropNumber":1,"nPropDigits":3,"tml_elements":["nPropNumber","nPropValue","nPropDigits","CombinedUncertainty"],"CombinedUncertainty":{"nCombUncertAssessNum":1,"tml_elements":["nCombUncertAssessNum","nCombExpandUncertValue"],"nCombExpandUncertValue":6.2e-05},"nPropValue":0.0004}],"tml_elements":["VariableValue","PropertyValue"]},{"VariableValue":[{"nVarValue":378.14,"tml_elements":["nVarNumber","nVarValue","nVarDigits"],"nVarDigits":5,"nVarNumber":1}],"PropertyValue":[{"tml_elements":["nPropNumber","nPropValue","nPropDigits","CombinedUncertainty"],"nPropNumber":1,"nPropDigits":3,"nPropValue":0.000525,"CombinedUncertainty":{"nCombExpandUncertValue":6.3e-05,"tml_elements":["nCombUncertAssessNum","nCombExpandUncertValue"],"nCombUncertAssessNum":1}}],"tml_elements":["VariableValue","PropertyValue"]},{"tml_elements":["VariableValue","PropertyValue"],"PropertyValue":[{"tml_elements":["nPropNumber","nPropValue","nPropDigits","CombinedUncertainty"],"nPropNumber":1,"nPropDigits":3,"CombinedUncertainty":{"nCombExpandUncertValue":6.4e-05,"tml_elements":["nCombUncertAssessNum","nCombExpandUncertValue"],"nCombUncertAssessNum":1},"nPropValue":0.000594}],"VariableValue":[{"nVarValue":380.15,"nVarNumber":1,"nVarDigits":5,"tml_elements":["nVarNumber","nVarValue","nVarDigits"]}]},{"VariableValue":[{"tml_elements":["nVarNumber","nVarValue","nVarDigits"],"nVarDigits":5,"nVarNumber":1,"nVarValue":382.13}],"tml_elements":["VariableValue","PropertyValue"],"PropertyValue":[{"nPropValue":0.000737,"CombinedUncertainty":{"nCombExpandUncertValue":6.5e-05,"tml_elements":["nCombUncertAssessNum","nCombExpandUncertValue"],"nCombUncertAssessNum":1},"tml_elements":["nPropNumber","nPropValue","nPropDigits","CombinedUncertainty"],"nPropDigits":3,"nPropNumber":1}]},{"tml_elements":["VariableValue","PropertyValue"],"PropertyValue":[{"nPropValue":0.00096,"CombinedUncertainty":{"nCombUncertAssessNum":1,"nCombExpandUncertValue":6.9e-05,"tml_elements":["nCombUncertAssessNum","nCombExpandUncertValue"]},"tml_elements":["nPropNumber","nPropValue","nPropDigits","CombinedUncertainty"],"nPropNumber":1,"nPropDigits":3}],"VariableValue":[{"tml_elements":["nVarNumber","nVarValue","nVarDigits"],"nVarDigits":5,"nVarNumber":1,"nVarValue":384.14}]},{"PropertyValue":[{"tml_elements":["nPropNumber","nPropValue","nPropDigits","CombinedUncertainty"],"nPropDigits":4,"nPropNumber":1,"nPropValue":0.001082,"CombinedUncertainty":{"nCombUncertAssessNum":1,"nCombExpandUncertValue":9.8e-05,"tml_elements":["nCombUncertAssessNum","nCombExpandUncertValue"]}}],"tml_elements":["VariableValue","PropertyValue"],"VariableValue":[{"nVarNumber":1,"tml_elements":["nVarNumber","nVarValue","nVarDigits"],"nVarDigits":5,"nVarValue":386.15}]}],"dateDateAdded":"6/27/2017","nPureOrMixtureDataNumber":6,"sCompiler":"AB"},{"eExpPurpose":"Principal objective of the work","Property":[{"Property-MethodID":{"PropertyGroup":{"HeatCapacityAndDerivedProp":{"tml_elements":["ePropName","eMethodName"],"eMethodName":"Drop calorimetry","ePropName":"Molar enthalpy, kJ/mol"},"tml_elements":["HeatCapacityAndDerivedProp"]},"tml_elements":["PropertyGroup"]},"RefPhaseID":{"eRefPhase":"Crystal","tml_elements":["eRefPhase"]},"nRefPressure":"100","eRefStateType":"Reference phase with the same composition at fixed temperature and pressure","nRefPressureDigits":1,"CombinedUncertainty":{"nCombUncertAssessNum":1,"sCombUncertEvaluator":"Data file compiler","tml_elements":["nCombUncertAssessNum","sCombUncertEvaluator","eCombUncertEvalMethod","nCombUncertLevOfConfid"],"nCombUncertLevOfConfid":95,"eCombUncertEvalMethod":"Propagation of evaluated standard uncertainties"},"nRefTemp":"298.15","PropPhaseID":{"tml_elements":["ePropPhase"],"ePropPhase":"Gas"},"nPropNumber":1,"ePresentation":"Difference with the reference state, X-X(REF)","tml_elements":["nPropNumber","Property-MethodID","PropPhaseID","ePresentation","eRefStateType","nRefTemp","nRefTempDigits","nRefPressure","nRefPressureDigits","RefPhaseID","CombinedUncertainty"],"nRefTempDigits":5}],"nPureOrMixtureDataNumber":7,"dateDateAdded":"6/27/2017","sCompiler":"AB","NumValues":[{"VariableValue":[{"nVarValue":446.93,"tml_elements":["nVarNumber","nVarValue","nVarDigits"],"nVarDigits":5,"nVarNumber":1}],"PropertyValue":[{"CombinedUncertainty":{"tml_elements":["nCombUncertAssessNum","nCombExpandUncertValue"],"nCombExpandUncertValue":4.6,"nCombUncertAssessNum":1},"nPropValue":197.9,"tml_elements":["nPropNumber","nPropValue","nPropDigits","CombinedUncertainty"],"nPropDigits":4,"nPropNumber":1}],"tml_elements":["VariableValue","PropertyValue"]}],"tml_elements":["nPureOrMixtureDataNumber","Component","eExpPurpose","sCompiler","sContributor","dateDateAdded","Property","PhaseID","Variable","NumValues"],"PhaseID":[{"tml_elements":["ePhase"],"ePhase":"Gas"},{"tml_elements":["ePhase"],"ePhase":"Crystal"}],"Component":[{"RegNum":{"tml_elements":["nOrgNum"],"nOrgNum":5},"nSampleNm":1,"tml_elements":["RegNum","nSampleNm"]}],"sContributor":"TRC","Variable":[{"tml_elements":["nVarNumber","VariableID","VarPhaseID"],"VarPhaseID":{"eVarPhase":"Gas","tml_elements":["eVarPhase"]},"nVarNumber":1,"VariableID":{"tml_elements":["VariableType"],"VariableType":{"tml_elements":["eTemperature"],"eTemperature":"Temperature, K"}}}]}],"ReactionData":[{"eExpPurpose":"Principal objective of the work","Property":[{"Property-MethodID":{"tml_elements":["PropertyGroup"],"PropertyGroup":{"tml_elements":["ReactionStateChangeProp"],"ReactionStateChangeProp":{"tml_elements":["ePropName","eMethodName"],"ePropName":"Specific internal energy of reaction at constant volume, J/g","eMethodName":"Static bomb calorimetry"}}},"nTemperatureDigits":5,"CombinedUncertainty":{"sCombUncertEvaluator":"Data file compiler","nCombUncertAssessNum":1,"nCombUncertLevOfConfid":95,"eCombUncertEvalMethod":"Propagation of evaluated standard uncertainties","tml_elements":["nCombUncertAssessNum","sCombUncertEvaluator","eCombUncertEvalMethod","nCombUncertLevOfConfid"]},"nTemperature-K":"298.15","nPressureDigits":1,"nPressure-kPa":"100","nPropNumber":1,"tml_elements":["nPropNumber","Property-MethodID","nTemperature-K","nTemperatureDigits","nPressure-kPa","nPressureDigits","CombinedUncertainty"]}],"NumValues":[{"VariableValue":[],"PropertyValue":[{"nPropValue":-37059.3,"CombinedUncertainty":{"nCombExpandUncertValue":23.7,"tml_elements":["nCombUncertAssessNum","nCombExpandUncertValue"],"nCombUncertAssessNum":1},"nPropDigits":7,"nPropNumber":1,"tml_elements":["nPropNumber","nPropValue","nPropDigits","CombinedUncertainty"]}],"tml_elements":["PropertyValue"]}],"sCompiler":"AB","dateDateAdded":"6/27/2017","eReactionType":"Combustion with oxygen","tml_elements":["nReactionDataNumber","Participant","eExpPurpose","sCompiler","sContributor","dateDateAdded","eReactionType","Property","NumValues"],"Participant":[{"ePhase":"Crystal","tml_elements":["RegNum","nSampleNm","nStoichiometricCoef","ePhase"],"RegNum":{"tml_elements":["nOrgNum"],"nOrgNum":4},"nSampleNm":1,"nStoichiometricCoef":"-1"},{"RegNum":{"nOrgNum":1,"tml_elements":["nOrgNum"]},"nStoichiometricCoef":"15","tml_elements":["RegNum","nStoichiometricCoef","ePhase"],"ePhase":"Ideal gas"},{"RegNum":{"tml_elements":["nOrgNum"],"nOrgNum":2},"nStoichiometricCoef":"7","tml_elements":["RegNum","nStoichiometricCoef","ePhase"],"ePhase":"Liquid"},{"tml_elements":["RegNum","nStoichiometricCoef","ePhase"],"ePhase":"Ideal gas","nStoichiometricCoef":"-18","RegNum":{"tml_elements":["nOrgNum"],"nOrgNum":3}}],"sContributor":"TRC","nReactionDataNumber":1},{"dateDateAdded":"6/27/2017","sCompiler":"AB","NumValues":[{"VariableValue":[],"PropertyValue":[{"tml_elements":["nPropNumber","nPropValue","nPropDigits","CombinedUncertainty"],"nPropDigits":7,"nPropNumber":1,"nPropValue":-40221.91,"CombinedUncertainty":{"tml_elements":["nCombUncertAssessNum","nCombExpandUncertValue"],"nCombExpandUncertValue":25.63,"nCombUncertAssessNum":1}}],"tml_elements":["PropertyValue"]}],"Property":[{"nPropNumber":1,"tml_elements":["nPropNumber","Property-MethodID","nTemperature-K","nTemperatureDigits","nPressure-kPa","nPressureDigits","CombinedUncertainty"],"Property-MethodID":{"tml_elements":["PropertyGroup"],"PropertyGroup":{"ReactionStateChangeProp":{"tml_elements":["ePropName","eMethodName"],"eMethodName":"Static bomb calorimetry","ePropName":"Specific internal energy of reaction at constant volume, J/g"},"tml_elements":["ReactionStateChangeProp"]}},"nTemperatureDigits":5,"CombinedUncertainty":{"sCombUncertEvaluator":"Data file compiler","nCombUncertAssessNum":1,"eCombUncertEvalMethod":"Propagation of evaluated standard uncertainties","nCombUncertLevOfConfid":95,"tml_elements":["nCombUncertAssessNum","sCombUncertEvaluator","eCombUncertEvalMethod","nCombUncertLevOfConfid"]},"nTemperature-K":"298.15","nPressure-kPa":"100","nPressureDigits":1}],"eExpPurpose":"Principal objective of the work","nReactionDataNumber":2,"sContributor":"TRC","Participant":[{"ePhase":"Crystal","tml_elements":["RegNum","nSampleNm","nStoichiometricCoef","ePhase"],"nSampleNm":1,"nStoichiometricCoef":"-1","RegNum":{"nOrgNum":5,"tml_elements":["nOrgNum"]}},{"RegNum":{"nOrgNum":1,"tml_elements":["nOrgNum"]},"nStoichiometricCoef":"23","tml_elements":["RegNum","nStoichiometricCoef","ePhase"],"ePhase":"Ideal gas"},{"ePhase":"Liquid","tml_elements":["RegNum","nStoichiometricCoef","ePhase"],"nStoichiometricCoef":"15","RegNum":{"tml_elements":["nOrgNum"],"nOrgNum":2}},{"tml_elements":["RegNum","nStoichiometricCoef","ePhase"],"ePhase":"Ideal gas","nStoichiometricCoef":"-30","RegNum":{"tml_elements":["nOrgNum"],"nOrgNum":3}}],"tml_elements":["nReactionDataNumber","Participant","eExpPurpose","sCompiler","sContributor","dateDateAdded","eReactionType","Property","NumValues"],"eReactionType":"Combustion with oxygen"}],"tml_elements":["Version","Citation","Compound","PureOrMixtureData","ReactionData"],"Compound":[{"sStandardInChIKey":"CURLTUGMZLYLDI-UHFFFAOYSA-N","sStandardInChI":"InChI=1S/CO2/c2-1-3","RegNum":{"nOrgNum":1,"tml_elements":["nOrgNum"]},"sCommonName":["carbon dioxide"],"tml_elements":["RegNum","sStandardInChI","sStandardInChIKey","sCommonName","sFormulaMolec"],"sFormulaMolec":"CO2"},{"sFormulaMolec":"H2O","sStandardInChIKey":"XLYOFNOQVPJJNP-UHFFFAOYSA-N","sCommonName":["water"],"tml_elements":["RegNum","sStandardInChI","sStandardInChIKey","sCommonName","sFormulaMolec"],"RegNum":{"nOrgNum":2,"tml_elements":["nOrgNum"]},"sStandardInChI":"InChI=1S/H2O/h1H2"},{"sFormulaMolec":"O2","sStandardInChIKey":"MYMOFIZGZYHOMD-UHFFFAOYSA-N","sCommonName":["oxygen"],"tml_elements":["RegNum","sStandardInChI","sStandardInChIKey","sCommonName","sFormulaMolec"],"RegNum":{"nOrgNum":3,"tml_elements":["nOrgNum"]},"sStandardInChI":"InChI=1S/O2/c1-2"},{"sFormulaMolec":"C15H14O","tml_elements":["RegNum","sStandardInChI","sStandardInChIKey","sCommonName","sFormulaMolec","Sample"],"Sample":[{"purity":[{"eAnalMeth":["Stated by supplier"],"nStep":1,"nPurityMolDigits":3,"tml_elements":["nStep","nPurityMol","nPurityMolDigits","eAnalMeth"],"nPurityMol":99.8},{"ePurifMethod":["Sublimation"],"tml_elements":["nStep","ePurifMethod"],"nStep":2},{"nPurityMass":99.92,"eAnalMeth":["Gas chromatography"],"nStep":3,"tml_elements":["nStep","nPurityMass","nPurityMassDigits","eAnalMeth"],"nPurityMassDigits":4},{"nPurityMassDigits":4,"tml_elements":["nStep","nPurityMass","nPurityMassDigits","eAnalMeth"],"nStep":4,"nPurityMass":99.97,"eAnalMeth":["CO2 yield in combustion products"]}],"tml_elements":["nSampleNm","eSource","purity"],"nSampleNm":1,"eSource":"Commercial source"}],"sCommonName":["9,9-dimethylxanthene","9,9-dimethyl-9H-xanthene"],"sStandardInChIKey":"MTVNAPYHLASOSX-UHFFFAOYSA-N","sStandardInChI":"InChI=1S/C15H14O/c1-15(2)11-7-3-5-9-13(11)16-14-10-6-4-8-12(14)15/h3-10H,1-2H3","RegNum":{"nOrgNum":4,"tml_elements":["nOrgNum"]}},{"sFormulaMolec":"C23H30O","tml_elements":["RegNum","sStandardInChI","sStandardInChIKey","sCommonName","sFormulaMolec","Sample"],"Sample":[{"tml_elements":["nSampleNm","eSource","purity"],"purity":[{"eAnalMeth":["Stated by supplier"],"nPurityMolDigits":3,"nStep":1,"tml_elements":["nStep","nPurityMol","nPurityMolDigits","eAnalMeth"],"nPurityMol":96.9},{"tml_elements":["nStep","ePurifMethod"],"nStep":2,"ePurifMethod":["Sublimation"]},{"eAnalMeth":["Gas chromatography"],"nPurityMass":99.99,"nPurityMassDigits":4,"tml_elements":["nStep","nPurityMass","nPurityMassDigits","eAnalMeth"],"nStep":3},{"nPurityMassDigits":4,"tml_elements":["nStep","nPurityMass","nPurityMassDigits","eAnalMeth"],"nStep":4,"nPurityMass":99.95,"eAnalMeth":["CO2 yield in combustion products"]}],"nSampleNm":1,"eSource":"Commercial source"}],"sCommonName":["2,7-di-tert-butyl-9,9-dimethylxanthene","2,7-bis(1,1-dimethylethyl)-9,9-dimethyl-9H-xanthene","2,7-di-tert-butyl-9,9-dimethyl-9H-xanthene"],"sStandardInChI":"InChI=1S/C23H30O/c1-21(2,3)15-9-11-19-17(13-15)23(7,8)18-14-16(22(4,5)6)10-12-20(18)24-19/h9-14H,1-8H3","RegNum":{"nOrgNum":5,"tml_elements":["nOrgNum"]},"sStandardInChIKey":"COCYABCDIOEUAC-UHFFFAOYSA-N"}],"THERMOML_MD5_CHECKSUM":"7c12227f89714ad5d9a65799200fd8f8"}