{"Version":{"nVersionMinor":0,"nVersionMajor":2,"tml_elements":["nVersionMajor","nVersionMinor"]},"tml_elements":["Version","Citation","Compound","PureOrMixtureData"],"PureOrMixtureData":[{"Component":[{"tml_elements":["RegNum","nSampleNm"],"RegNum":{"tml_elements":["nOrgNum"],"nOrgNum":1},"nSampleNm":1},{"nSampleNm":1,"RegNum":{"nOrgNum":2,"tml_elements":["nOrgNum"]},"tml_elements":["RegNum","nSampleNm"]},{"tml_elements":["RegNum","nSampleNm"],"RegNum":{"nOrgNum":3,"tml_elements":["nOrgNum"]},"nSampleNm":1}],"PhaseID":[{"ePhase":"Liquid","tml_elements":["ePhase"]}],"tml_elements":["nPureOrMixtureDataNumber","Component","eExpPurpose","sCompiler","sContributor","dateDateAdded","Property","PhaseID","Variable","NumValues"],"Variable":[{"nVarNumber":1,"VarPhaseID":{"tml_elements":["eVarPhase"],"eVarPhase":"Liquid"},"tml_elements":["nVarNumber","VariableID","VarPhaseID"],"VariableID":{"RegNum":{"tml_elements":["nOrgNum"],"nOrgNum":2},"tml_elements":["VariableType","RegNum"],"VariableType":{"eSolventComposition":"Solvent: Mass fraction","tml_elements":["eSolventComposition"]}}},{"nVarNumber":2,"VarPhaseID":{"tml_elements":["eVarPhase"],"eVarPhase":"Liquid"},"tml_elements":["nVarNumber","VariableID","VarPhaseID"],"VariableID":{"tml_elements":["VariableType","RegNum"],"VariableType":{"tml_elements":["eComponentComposition"],"eComponentComposition":"Mole fraction"},"RegNum":{"nOrgNum":1,"tml_elements":["nOrgNum"]}}},{"VariableID":{"VariableType":{"ePressure":"Pressure, kPa","tml_elements":["ePressure"]},"tml_elements":["VariableType"]},"VarPhaseID":{"eVarPhase":"Liquid","tml_elements":["eVarPhase"]},"nVarNumber":3,"tml_elements":["nVarNumber","VariableID","VarPhaseID"]},{"VariableID":{"VariableType":{"eTemperature":"Temperature, K","tml_elements":["eTemperature"]},"tml_elements":["VariableType"]},"tml_elements":["nVarNumber","VariableID","VarPhaseID"],"nVarNumber":4,"VarPhaseID":{"tml_elements":["eVarPhase"],"eVarPhase":"Liquid"}}],"sContributor":"TRC","Property":[{"tml_elements":["nPropNumber","Property-MethodID","PropPhaseID","ePresentation","eRefStateType","RefPhaseID","Solvent","CombinedUncertainty"],"ePresentation":"Difference with the reference state, X-X(REF)","nPropNumber":1,"PropPhaseID":{"tml_elements":["ePropPhase"],"ePropPhase":"Liquid"},"Solvent":{"RegNum":[{"tml_elements":["nOrgNum"],"nOrgNum":2},{"nOrgNum":3,"tml_elements":["nOrgNum"]}],"tml_elements":["RegNum"]},"CombinedUncertainty":{"nCombUncertAssessNum":1,"sCombUncertEvaluator":"Data file compiler","tml_elements":["nCombUncertAssessNum","sCombUncertEvaluator","eCombUncertEvalMethod","nCombUncertLevOfConfid"],"nCombUncertLevOfConfid":95,"eCombUncertEvalMethod":"Propagation of evaluated standard uncertainties"},"eRefStateType":"Pure solute at the same temperature and pressure","Property-MethodID":{"tml_elements":["PropertyGroup"],"PropertyGroup":{"ExcessPartialApparentEnergyProp":{"eMethodName":"Calvet calorimetry","ePropName":"Molar enthalpy of solution, kJ/mol","tml_elements":["ePropName","eMethodName"]},"tml_elements":["ExcessPartialApparentEnergyProp"]}},"RefPhaseID":{"tml_elements":["eRefPhase"],"eRefPhase":"Crystal"}}],"eExpPurpose":"Principal objective of the work","NumValues":[{"VariableValue":[{"nVarValue":0.169,"nVarNumber":1,"nVarDigits":3,"tml_elements":["nVarNumber","nVarValue","nVarDigits"]},{"tml_elements":["nVarNumber","nVarValue","nVarDigits"],"nVarDigits":1,"nVarNumber":2,"nVarValue":0},{"nVarNumber":3,"nVarDigits":1,"tml_elements":["nVarNumber","nVarValue","nVarDigits"],"nVarValue":100},{"nVarValue":300.15,"nVarDigits":5,"tml_elements":["nVarNumber","nVarValue","nVarDigits"],"nVarNumber":4}],"tml_elements":["VariableValue","PropertyValue"],"PropertyValue":[{"nPropValue":22.65,"CombinedUncertainty":{"nCombUncertAssessNum":1,"nCombExpandUncertValue":1.16,"tml_elements":["nCombUncertAssessNum","nCombExpandUncertValue"]},"tml_elements":["nPropNumber","nPropValue","nPropDigits","CombinedUncertainty"],"nPropNumber":1,"nPropDigits":4}]}],"sCompiler":"AB","nPureOrMixtureDataNumber":1,"dateDateAdded":"10/7/2015"}],"THERMOML_MD5_CHECKSUM":"35e6fa8a40b53fee0485432a3384cca5","Citation":{"tml_elements":["TRCRefID","eType","eSourceType","sAuthor","sPubName","yrPubYr","dateCit","sTitle","sAbstract","sKeyword","sDOI","sVol","sPage"],"sAuthor":["Reusser, D.[Dana]","Schliesser, J.[Jacob]","Elliott, W. S.[William S.]","Woodfield, B. F.[Brian F.]","Johnson, D. W.[Darren W.]","Navrotsky, A.[Alexandra]"],"sKeyword":["Heat capacity","Flat Al13","Keggin ion","Polyoxocation","Enthalpy of formation"],"TRCRefID":{"yrYrPub":"2015","tml_elements":["yrYrPub","sAuthor1","sAuthor2","nAuthorn"],"nAuthorn":"0","sAuthor2":"sch","sAuthor1":"reu"},"sAbstract":"We report enthalpies of formation from the elements and oxides, DfH  = (26195.31 +- 34.46) kJ  mol 1 and Df;oxH = (1402.09 +- 33.36) kJ  mol 1, for crystalline [Al13(l3-OH)6(l2-OH)18(H2O)24](NO3)15 11H2O(cr) (flat-Al13) measured using aqueous solution room temperature calorimetry. This material is a nitrate salt of a polynuclear aluminum hydroxide ion with thirteen aluminum metal centers, Al13 15+. Unlike the e-Al13 7+ Keggin ion, it contains solely octahedrally coordinated aluminum in a more flat topology. We also report heat capacities from temperatures of (2 to 300) K on this flat-Al13 nitrate using a Quantum Design Physical Property Measurement System (PPMS). These measurements were used to calculate the standard molar entropy and subsequently the free energy of formation for this material. We observed that during the heat capacity measurements, the flat-Al13 sample underwent a second order phase transition near T = 214 K.","sTitle":"Heat capacities and thermodynamics of formation of flat-Al13 nitrate - [Al13(OH)24(H2O)24](NO3)15.11H2O","sDOI":"10.1016/j.jct.2015.06.037","eSourceType":"Original","eType":"journal","sVol":"90","sPage":"224-231","sPubName":"J. Chem. Thermodyn.","yrPubYr":"2015","dateCit":"2020-09-29"},"Compound":[{"sFormulaMolec":"NNaO3","sCommonName":["sodium nitrate","nitric acid sodium salt"],"Sample":[{"nSampleNm":1,"eSource":"Commercial source","purity":[{"nPurityMassDigits":2,"tml_elements":["nStep","nPurityMass","nPurityMassDigits","eAnalMeth"],"nStep":1,"nPurityMass":99,"eAnalMeth":["Stated by supplier"]}],"tml_elements":["nSampleNm","eSource","purity"]}],"tml_elements":["RegNum","sStandardInChI","sStandardInChIKey","sCommonName","sFormulaMolec","Sample"],"sStandardInChI":"InChI=1S/NO3.Na/c2-1(3)4;/q-1;+1","RegNum":{"tml_elements":["nOrgNum"],"nOrgNum":1},"sStandardInChIKey":"VWDWKYIASSYTQR-UHFFFAOYSA-N"},{"sStandardInChIKey":"VEXZGXHMUGYJMC-UHFFFAOYSA-N","sStandardInChI":"InChI=1S/ClH/h1H","RegNum":{"tml_elements":["nOrgNum"],"nOrgNum":2},"sCommonName":["hydrogen chloride"],"Sample":[{"nSampleNm":1,"eSource":"Commercial source","purity":[{"nStep":1,"tml_elements":["nStep","nPurityMass","nPurityMassDigits","eAnalMeth"],"nPurityMassDigits":2,"eAnalMeth":["Estimated by the compiler"],"nPurityMass":98}],"tml_elements":["nSampleNm","eSource","purity"]}],"tml_elements":["RegNum","sStandardInChI","sStandardInChIKey","sCommonName","sFormulaMolec","Sample"],"sFormulaMolec":"ClH"},{"sCommonName":["water"],"Sample":[{"purity":[{"eAnalMeth":["Estimated by the compiler"],"nPurityMass":99.9,"nPurityMassDigits":3,"tml_elements":["nStep","nPurityMass","nPurityMassDigits","eAnalMeth"],"nStep":1}],"tml_elements":["nSampleNm","eSource","purity"],"nSampleNm":1,"eSource":"Commercial source"}],"tml_elements":["RegNum","sStandardInChI","sStandardInChIKey","sCommonName","sFormulaMolec","Sample"],"sFormulaMolec":"H2O","sStandardInChIKey":"XLYOFNOQVPJJNP-UHFFFAOYSA-N","sStandardInChI":"InChI=1S/H2O/h1H2","RegNum":{"tml_elements":["nOrgNum"],"nOrgNum":3}}]}