{"Citation":{"eSourceType":"Original","tml_elements":["TRCRefID","eType","eSourceType","sAuthor","sPubName","yrPubYr","dateCit","sTitle","sAbstract","sKeyword","sDOI","sIDNum","sVol","sPage"],"sKeyword":["Microcalorimetry","Enthalpy of combustion","Enthalpy of formation","Anthracene","Succinic acid","Acetanilide","1,2,4-Triazole","Mini-bomb","Test  and calibration"],"sAuthor":["Ribeiro da Silva, M. A. V.[Manuel A. V.]","Pilcher, G.[Geoffrey]","Santos, L. M. N. B. F.[Luis M. N. B. F.]","Lima, L. M. S. S. M. S. S.[Luis M. Spencer S.]"],"TRCRefID":{"sAuthor1":"rib","sAuthor2":"pil","nAuthorn":"0","tml_elements":["yrYrPub","sAuthor1","sAuthor2","nAuthorn"],"yrYrPub":"2007"},"sAbstract":"A new mini-bomb combustion calorimeter designed at the University of Lund was improved, installed and calibrated at the University  of Porto. This calorimeter is suitable for high precision combustion calorimetry with samples of mass about (10 to 40) mg. The  energy equivalent of the calorimeter, ecal = (1946.45 +- 0.11) J Ae K 1, was obtained from 15 independent calibration experiments with benzoic  acid SRM 39i. Anthracene, succinic acid, acetanilide, and 1,2,4-triazole were used as test compounds, with excellent agreement with  the literature values.","sTitle":"Calibration and test of an aneroid mini-bomb combustion calorimeter","sDOI":"10.1016/j.jct.2006.10.013","yrPubYr":"2007","sPubName":"J. Chem. Thermodyn.","sIDNum":"5","dateCit":"2020-09-29","eType":"journal","sVol":"39","sPage":"689-697"},"Version":{"nVersionMajor":2,"nVersionMinor":0,"tml_elements":["nVersionMajor","nVersionMinor"]},"ReactionData":[{"sCompiler":"HR","dateDateAdded":"7/5/2007","NumValues":[{"PropertyValue":[{"nPropValue":-39591.6,"CombinedUncertainty":{"nCombUncertAssessNum":1,"nCombExpandUncertValue":10,"tml_elements":["nCombUncertAssessNum","nCombExpandUncertValue"]},"tml_elements":["nPropNumber","nPropValue","nPropDigits","CombinedUncertainty"],"nPropDigits":6,"nPropNumber":1}],"tml_elements":["PropertyValue"],"VariableValue":[]}],"Property":[{"nPropNumber":1,"tml_elements":["nPropNumber","Property-MethodID","nTemperature-K","nTemperatureDigits","nPressure-kPa","nPressureDigits","CombinedUncertainty"],"CombinedUncertainty":{"nCombUncertAssessNum":1,"sCombUncertEvaluator":"Data file compiler","tml_elements":["nCombUncertAssessNum","sCombUncertEvaluator","eCombUncertEvalMethod","nCombUncertLevOfConfid"],"eCombUncertEvalMethod":"Propagation of evaluated standard uncertainties","nCombUncertLevOfConfid":95},"nTemperature-K":"298.15","nPressureDigits":4,"nPressure-kPa":"101.3","Property-MethodID":{"PropertyGroup":{"ReactionStateChangeProp":{"tml_elements":["ePropName","eMethodName"],"eMethodName":"Micro-bomb calorimetry","ePropName":"Specific internal energy of reaction at constant volume, J/g"},"tml_elements":["ReactionStateChangeProp"]},"tml_elements":["PropertyGroup"]},"nTemperatureDigits":5}],"eExpPurpose":"Principal objective of the work","nReactionDataNumber":1,"sContributor":"HR","eReactionType":"Combustion with oxygen","tml_elements":["nReactionDataNumber","Participant","eExpPurpose","sCompiler","sContributor","dateDateAdded","eReactionType","Property","NumValues"],"Participant":[{"nStoichiometricCoef":"-1","nSampleNm":1,"RegNum":{"nOrgNum":5,"tml_elements":["nOrgNum"]},"tml_elements":["RegNum","nSampleNm","nStoichiometricCoef","ePhase"],"ePhase":"Crystal"},{"ePhase":"Ideal gas","tml_elements":["RegNum","nStoichiometricCoef","ePhase"],"nStoichiometricCoef":"14","RegNum":{"nOrgNum":1,"tml_elements":["nOrgNum"]}},{"RegNum":{"tml_elements":["nOrgNum"],"nOrgNum":2},"nStoichiometricCoef":"5","tml_elements":["RegNum","nStoichiometricCoef","ePhase"],"ePhase":"Liquid"},{"nStoichiometricCoef":"-16.5","RegNum":{"nOrgNum":3,"tml_elements":["nOrgNum"]},"ePhase":"Ideal gas","tml_elements":["RegNum","nStoichiometricCoef","ePhase"]}]},{"eReactionType":"Combustion with oxygen","tml_elements":["nReactionDataNumber","Participant","eExpPurpose","sCompiler","sContributor","dateDateAdded","eReactionType","Property","NumValues"],"Participant":[{"nStoichiometricCoef":"-1","nSampleNm":1,"RegNum":{"nOrgNum":6,"tml_elements":["nOrgNum"]},"tml_elements":["RegNum","nSampleNm","nStoichiometricCoef","ePhase"],"ePhase":"Crystal"},{"ePhase":"Ideal gas","tml_elements":["RegNum","nStoichiometricCoef","ePhase"],"RegNum":{"tml_elements":["nOrgNum"],"nOrgNum":1},"nStoichiometricCoef":"4"},{"RegNum":{"nOrgNum":2,"tml_elements":["nOrgNum"]},"nStoichiometricCoef":"3","ePhase":"Liquid","tml_elements":["RegNum","nStoichiometricCoef","ePhase"]},{"RegNum":{"tml_elements":["nOrgNum"],"nOrgNum":3},"nStoichiometricCoef":"-3.5","ePhase":"Ideal gas","tml_elements":["RegNum","nStoichiometricCoef","ePhase"]}],"nReactionDataNumber":2,"sContributor":"HR","Property":[{"nTemperatureDigits":5,"Property-MethodID":{"tml_elements":["PropertyGroup"],"PropertyGroup":{"ReactionStateChangeProp":{"ePropName":"Specific internal energy of reaction at constant volume, J/g","eMethodName":"Micro-bomb calorimetry","tml_elements":["ePropName","eMethodName"]},"tml_elements":["ReactionStateChangeProp"]}},"nPressure-kPa":"101.3","nPressureDigits":4,"CombinedUncertainty":{"eCombUncertEvalMethod":"Propagation of evaluated standard uncertainties","nCombUncertLevOfConfid":95,"tml_elements":["nCombUncertAssessNum","sCombUncertEvaluator","eCombUncertEvalMethod","nCombUncertLevOfConfid"],"sCombUncertEvaluator":"Data file compiler","nCombUncertAssessNum":1},"nTemperature-K":"298.15","tml_elements":["nPropNumber","Property-MethodID","nTemperature-K","nTemperatureDigits","nPressure-kPa","nPressureDigits","CombinedUncertainty"],"nPropNumber":1}],"eExpPurpose":"Principal objective of the work","sCompiler":"HR","dateDateAdded":"7/5/2007","NumValues":[{"PropertyValue":[{"nPropNumber":1,"nPropDigits":6,"tml_elements":["nPropNumber","nPropValue","nPropDigits","CombinedUncertainty"],"CombinedUncertainty":{"tml_elements":["nCombUncertAssessNum","nCombExpandUncertValue"],"nCombExpandUncertValue":4,"nCombUncertAssessNum":1},"nPropValue":-12630.1}],"tml_elements":["PropertyValue"],"VariableValue":[]}]},{"eReactionType":"Combustion with oxygen","Participant":[{"RegNum":{"nOrgNum":7,"tml_elements":["nOrgNum"]},"nSampleNm":1,"nStoichiometricCoef":"-1","ePhase":"Crystal","tml_elements":["RegNum","nSampleNm","nStoichiometricCoef","ePhase"]},{"ePhase":"Ideal gas","tml_elements":["RegNum","nStoichiometricCoef","ePhase"],"RegNum":{"tml_elements":["nOrgNum"],"nOrgNum":1},"nStoichiometricCoef":"8"},{"tml_elements":["RegNum","nStoichiometricCoef","ePhase"],"ePhase":"Ideal gas","nStoichiometricCoef":".5","RegNum":{"tml_elements":["nOrgNum"],"nOrgNum":4}},{"RegNum":{"nOrgNum":2,"tml_elements":["nOrgNum"]},"nStoichiometricCoef":"4.5","tml_elements":["RegNum","nStoichiometricCoef","ePhase"],"ePhase":"Liquid"},{"RegNum":{"nOrgNum":3,"tml_elements":["nOrgNum"]},"nStoichiometricCoef":"-9.75","tml_elements":["RegNum","nStoichiometricCoef","ePhase"],"ePhase":"Ideal gas"}],"tml_elements":["nReactionDataNumber","Participant","eExpPurpose","sCompiler","sContributor","dateDateAdded","eReactionType","Property","NumValues"],"nReactionDataNumber":3,"sContributor":"HR","eExpPurpose":"Principal objective of the work","Property":[{"nPropNumber":1,"tml_elements":["nPropNumber","Property-MethodID","nTemperature-K","nTemperatureDigits","nPressure-kPa","nPressureDigits","CombinedUncertainty"],"Property-MethodID":{"tml_elements":["PropertyGroup"],"PropertyGroup":{"ReactionStateChangeProp":{"tml_elements":["ePropName","eMethodName"],"eMethodName":"Micro-bomb calorimetry","ePropName":"Specific internal energy of reaction at constant volume, J/g"},"tml_elements":["ReactionStateChangeProp"]}},"nTemperatureDigits":5,"CombinedUncertainty":{"nCombUncertLevOfConfid":95,"eCombUncertEvalMethod":"Propagation of evaluated standard uncertainties","tml_elements":["nCombUncertAssessNum","sCombUncertEvaluator","eCombUncertEvalMethod","nCombUncertLevOfConfid"],"sCombUncertEvaluator":"Data file compiler","nCombUncertAssessNum":1},"nTemperature-K":"298.15","nPressure-kPa":"101.3","nPressureDigits":4}],"sCompiler":"HR","dateDateAdded":"7/5/2007","NumValues":[{"VariableValue":[],"tml_elements":["PropertyValue"],"PropertyValue":[{"CombinedUncertainty":{"nCombUncertAssessNum":1,"nCombExpandUncertValue":7.4,"tml_elements":["nCombUncertAssessNum","nCombExpandUncertValue"]},"nPropValue":-31243.7,"tml_elements":["nPropNumber","nPropValue","nPropDigits","CombinedUncertainty"],"nPropDigits":6,"nPropNumber":1}]}]},{"eReactionType":"Combustion with oxygen","Participant":[{"RegNum":{"nOrgNum":8,"tml_elements":["nOrgNum"]},"nStoichiometricCoef":"-1","nSampleNm":1,"tml_elements":["RegNum","nSampleNm","nStoichiometricCoef","ePhase"],"ePhase":"Crystal"},{"ePhase":"Ideal gas","tml_elements":["RegNum","nStoichiometricCoef","ePhase"],"RegNum":{"tml_elements":["nOrgNum"],"nOrgNum":1},"nStoichiometricCoef":"2"},{"nStoichiometricCoef":"1.5","RegNum":{"nOrgNum":4,"tml_elements":["nOrgNum"]},"tml_elements":["RegNum","nStoichiometricCoef","ePhase"],"ePhase":"Ideal gas"},{"tml_elements":["RegNum","nStoichiometricCoef","ePhase"],"ePhase":"Liquid","nStoichiometricCoef":"1.5","RegNum":{"tml_elements":["nOrgNum"],"nOrgNum":2}},{"tml_elements":["RegNum","nStoichiometricCoef","ePhase"],"ePhase":"Ideal gas","RegNum":{"tml_elements":["nOrgNum"],"nOrgNum":3},"nStoichiometricCoef":"-2.75"}],"tml_elements":["nReactionDataNumber","Participant","eExpPurpose","sCompiler","sContributor","dateDateAdded","eReactionType","Property","NumValues"],"sContributor":"HR","nReactionDataNumber":4,"eExpPurpose":"Principal objective of the work","Property":[{"nTemperature-K":"298.15","CombinedUncertainty":{"nCombUncertLevOfConfid":95,"eCombUncertEvalMethod":"Propagation of evaluated standard uncertainties","tml_elements":["nCombUncertAssessNum","sCombUncertEvaluator","eCombUncertEvalMethod","nCombUncertLevOfConfid"],"sCombUncertEvaluator":"Data file compiler","nCombUncertAssessNum":1},"nPressureDigits":4,"nPressure-kPa":"101.3","nPropNumber":1,"Property-MethodID":{"tml_elements":["PropertyGroup"],"PropertyGroup":{"ReactionStateChangeProp":{"ePropName":"Specific internal energy of reaction at constant volume, J/g","eMethodName":"Micro-bomb calorimetry","tml_elements":["ePropName","eMethodName"]},"tml_elements":["ReactionStateChangeProp"]}},"tml_elements":["nPropNumber","Property-MethodID","nTemperature-K","nTemperatureDigits","nPressure-kPa","nPressureDigits","CombinedUncertainty"],"nTemperatureDigits":5}],"NumValues":[{"VariableValue":[],"tml_elements":["PropertyValue"],"PropertyValue":[{"tml_elements":["nPropNumber","nPropValue","nPropDigits","CombinedUncertainty"],"nPropNumber":1,"nPropDigits":6,"CombinedUncertainty":{"tml_elements":["nCombUncertAssessNum","nCombExpandUncertValue"],"nCombExpandUncertValue":5.5,"nCombUncertAssessNum":1},"nPropValue":-19227.3}]}],"sCompiler":"HR","dateDateAdded":"7/5/2007"}],"tml_elements":["Version","Citation","Compound","ReactionData"],"Compound":[{"sFormulaMolec":"CO2","tml_elements":["RegNum","sStandardInChI","sStandardInChIKey","sCommonName","sFormulaMolec"],"sCommonName":["carbon dioxide"],"sStandardInChIKey":"CURLTUGMZLYLDI-UHFFFAOYSA-N","sStandardInChI":"InChI=1S/CO2/c2-1-3","RegNum":{"nOrgNum":1,"tml_elements":["nOrgNum"]}},{"sCommonName":["water"],"tml_elements":["RegNum","sStandardInChI","sStandardInChIKey","sCommonName","sFormulaMolec"],"sFormulaMolec":"H2O","sStandardInChIKey":"XLYOFNOQVPJJNP-UHFFFAOYSA-N","RegNum":{"tml_elements":["nOrgNum"],"nOrgNum":2},"sStandardInChI":"InChI=1S/H2O/h1H2"},{"sStandardInChI":"InChI=1S/O2/c1-2","RegNum":{"nOrgNum":3,"tml_elements":["nOrgNum"]},"sStandardInChIKey":"MYMOFIZGZYHOMD-UHFFFAOYSA-N","sFormulaMolec":"O2","tml_elements":["RegNum","sStandardInChI","sStandardInChIKey","sCommonName","sFormulaMolec"],"sCommonName":["oxygen"]},{"tml_elements":["RegNum","sStandardInChI","sStandardInChIKey","sCommonName","sFormulaMolec"],"sCommonName":["nitrogen"],"sFormulaMolec":"N2","sStandardInChIKey":"IJGRMHOSHXDMSA-UHFFFAOYSA-N","RegNum":{"nOrgNum":4,"tml_elements":["nOrgNum"]},"sStandardInChI":"InChI=1S/N2/c1-2"},{"sFormulaMolec":"C14H10","sCommonName":["anthracene"],"tml_elements":["RegNum","sStandardInChI","sStandardInChIKey","sCommonName","sFormulaMolec","Sample"],"Sample":[{"purity":[{"ePurifMethod":["Sublimation"],"nStep":1,"tml_elements":["nStep","ePurifMethod"]},{"nPurityMassDigits":3,"tml_elements":["nStep","nPurityMass","nPurityMassDigits","eAnalMeth"],"nStep":2,"eAnalMeth":["Gas chromatography"],"nPurityMass":99.5}],"tml_elements":["nSampleNm","eSource","purity"],"eSource":"Commercial source","nSampleNm":1}],"sStandardInChI":"InChI=1S/C14H10/c1-2-6-12-10-14-8-4-3-7-13(14)9-11(12)5-1/h1-10H","RegNum":{"tml_elements":["nOrgNum"],"nOrgNum":5},"sStandardInChIKey":"MWPLVEDNUUSJAV-UHFFFAOYSA-N"},{"Sample":[{"tml_elements":["nSampleNm","eSource","purity"],"purity":[{"tml_elements":["nStep","ePurifMethod"],"nStep":1,"ePurifMethod":["Sublimation"]},{"tml_elements":["nStep","nPurityMass","nPurityMassDigits","eAnalMeth"],"nPurityMassDigits":3,"nStep":2,"eAnalMeth":["Gas chromatography"],"nPurityMass":99.5}],"eSource":"Commercial source","nSampleNm":1}],"tml_elements":["RegNum","sStandardInChI","sStandardInChIKey","sCommonName","sFormulaMolec","Sample"],"sCommonName":["butanedioic acid","1,2-ethanedicarboxylic acid","succinic acid"],"sFormulaMolec":"C4H6O4","sStandardInChIKey":"KDYFGRWQOYBRFD-UHFFFAOYSA-N","sStandardInChI":"InChI=1S/C4H6O4/c5-3(6)1-2-4(7)8/h1-2H2,(H,5,6)(H,7,8)","RegNum":{"nOrgNum":6,"tml_elements":["nOrgNum"]}},{"RegNum":{"tml_elements":["nOrgNum"],"nOrgNum":7},"sStandardInChI":"InChI=1S/C8H9NO/c1-7(10)9-8-5-3-2-4-6-8/h2-6H,1H3,(H,9,10)","sStandardInChIKey":"FZERHIULMFGESH-UHFFFAOYSA-N","Sample":[{"tml_elements":["nSampleNm","eSource","purity"],"purity":[{"ePurifMethod":["Sublimation"],"nStep":1,"tml_elements":["nStep","ePurifMethod"]},{"eAnalMeth":["Gas chromatography"],"nPurityMass":99.5,"nStep":2,"nPurityMassDigits":3,"tml_elements":["nStep","nPurityMass","nPurityMassDigits","eAnalMeth"]}],"nSampleNm":1,"eSource":"Commercial source"}],"tml_elements":["RegNum","sStandardInChI","sStandardInChIKey","sCommonName","sFormulaMolec","Sample"],"sCommonName":["N-phenylethanamide","N-phenylacetamide","acetanilide","acetylaniline"],"sFormulaMolec":"C8H9NO"},{"sStandardInChIKey":"NSPMIYGKQJPBQR-UHFFFAOYSA-N","sStandardInChI":"InChI=1S/C2H3N3/c1-3-2-5-4-1/h1-2H,(H,3,4,5)","RegNum":{"tml_elements":["nOrgNum"],"nOrgNum":8},"sFormulaMolec":"C2H3N3","tml_elements":["RegNum","sStandardInChI","sStandardInChIKey","sCommonName","sFormulaMolec","Sample"],"sCommonName":["1H-1,2,4-triazole","4H-1,2,4-triazole"],"Sample":[{"tml_elements":["nSampleNm","eSource","purity"],"purity":[{"ePurifMethod":["None used"],"tml_elements":["nStep","ePurifMethod"],"nStep":1},{"nStep":2,"tml_elements":["nStep","nPurityMass","nPurityMassDigits","eAnalMeth"],"nPurityMassDigits":3,"eAnalMeth":["Gas chromatography"],"nPurityMass":99.5}],"eSource":"Commercial source","nSampleNm":1}]}],"THERMOML_MD5_CHECKSUM":"f0239b8a60137bc4c6d5521a3f8433e8"}