{"tml_elements":["Version","Citation","Compound","PureOrMixtureData","ReactionData"],"ReactionData":[{"sCompiler":"AB","dateDateAdded":"3/4/2016","NumValues":[{"PropertyValue":[{"nPropNumber":1,"nPropDigits":5,"tml_elements":["nPropNumber","nPropValue","nPropDigits","CombinedUncertainty"],"nPropValue":-2272.6,"CombinedUncertainty":{"nCombExpandUncertValue":17.6,"tml_elements":["nCombUncertAssessNum","nCombExpandUncertValue"],"nCombUncertAssessNum":1}}],"tml_elements":["PropertyValue"],"VariableValue":[]}],"eExpPurpose":"Principal objective of the work","Property":[{"nPropNumber":1,"Property-MethodID":{"PropertyGroup":{"tml_elements":["ReactionStateChangeProp"],"ReactionStateChangeProp":{"tml_elements":["ePropName","eMethodName"],"ePropName":"Molar enthalpy of reaction, kJ/mol","eMethodName":"Solution calorimetry"}},"tml_elements":["PropertyGroup"]},"tml_elements":["nPropNumber","Property-MethodID","nTemperature-K","nTemperatureDigits","nPressure-kPa","nPressureDigits","CombinedUncertainty"],"nTemperatureDigits":5,"CombinedUncertainty":{"sCombUncertEvaluator":"Data file compiler","nCombUncertAssessNum":1,"eCombUncertEvalMethod":"Propagation of evaluated standard uncertainties","nCombUncertLevOfConfid":95,"tml_elements":["nCombUncertAssessNum","sCombUncertEvaluator","eCombUncertEvalMethod","nCombUncertLevOfConfid"]},"nTemperature-K":"298.15","nPressureDigits":3,"nPressure-kPa":"101"}],"nReactionDataNumber":1,"sContributor":"TRC","eReactionType":"Formation of a compound from elements in their stable state","tml_elements":["nReactionDataNumber","Participant","eExpPurpose","sCompiler","sContributor","dateDateAdded","eReactionType","Property","NumValues"],"Participant":[{"RegNum":{"tml_elements":["nOrgNum"],"nOrgNum":1},"nStoichiometricCoef":"-1","ePhase":"Crystal","tml_elements":["RegNum","nStoichiometricCoef","ePhase"]},{"nStoichiometricCoef":"-1","RegNum":{"tml_elements":["nOrgNum"],"nOrgNum":2},"tml_elements":["RegNum","nStoichiometricCoef","ePhase"],"ePhase":"Crystal"},{"RegNum":{"tml_elements":["nOrgNum"],"nOrgNum":7},"nStoichiometricCoef":"1","nSampleNm":1,"tml_elements":["RegNum","nSampleNm","nStoichiometricCoef","ePhase"],"ePhase":"Crystal"},{"tml_elements":["RegNum","nStoichiometricCoef","ePhase"],"ePhase":"Gas","nStoichiometricCoef":"-5","RegNum":{"tml_elements":["nOrgNum"],"nOrgNum":3}},{"ePhase":"Gas","tml_elements":["RegNum","nStoichiometricCoef","ePhase"],"RegNum":{"nOrgNum":4,"tml_elements":["nOrgNum"]},"nStoichiometricCoef":"-4.5"}]},{"eReactionType":"Formation of a compound from elements in their stable state","Participant":[{"tml_elements":["RegNum","nStoichiometricCoef","ePhase"],"ePhase":"Crystal","nStoichiometricCoef":"-1","RegNum":{"tml_elements":["nOrgNum"],"nOrgNum":1}},{"RegNum":{"tml_elements":["nOrgNum"],"nOrgNum":2},"nStoichiometricCoef":"-1","tml_elements":["RegNum","nStoichiometricCoef","ePhase"],"ePhase":"Crystal"},{"RegNum":{"tml_elements":["nOrgNum"],"nOrgNum":5},"nSampleNm":1,"nStoichiometricCoef":"1","ePhase":"Crystal","tml_elements":["RegNum","nSampleNm","nStoichiometricCoef","ePhase"]},{"nStoichiometricCoef":"-2","RegNum":{"tml_elements":["nOrgNum"],"nOrgNum":4},"ePhase":"Gas","tml_elements":["RegNum","nStoichiometricCoef","ePhase"]}],"tml_elements":["nReactionDataNumber","Participant","eExpPurpose","sCompiler","sContributor","dateDateAdded","eReactionType","Property","NumValues"],"nReactionDataNumber":2,"sContributor":"TRC","Property":[{"CombinedUncertainty":{"eCombUncertEvalMethod":"Propagation of evaluated standard uncertainties","nCombUncertLevOfConfid":95,"tml_elements":["nCombUncertAssessNum","sCombUncertEvaluator","eCombUncertEvalMethod","nCombUncertLevOfConfid"],"sCombUncertEvaluator":"Data file compiler","nCombUncertAssessNum":1},"nTemperature-K":"298.15","nPressureDigits":3,"nPressure-kPa":"101","Property-MethodID":{"PropertyGroup":{"tml_elements":["ReactionStateChangeProp"],"ReactionStateChangeProp":{"tml_elements":["ePropName","eMethodName"],"eMethodName":"Solution calorimetry","ePropName":"Molar enthalpy of reaction, kJ/mol"}},"tml_elements":["PropertyGroup"]},"nTemperatureDigits":5,"nPropNumber":1,"tml_elements":["nPropNumber","Property-MethodID","nTemperature-K","nTemperatureDigits","nPressure-kPa","nPressureDigits","CombinedUncertainty"]}],"eExpPurpose":"Principal objective of the work","sCompiler":"AB","dateDateAdded":"3/4/2016","NumValues":[{"PropertyValue":[{"nPropValue":-761.7,"CombinedUncertainty":{"nCombExpandUncertValue":7.6,"tml_elements":["nCombUncertAssessNum","nCombExpandUncertValue"],"nCombUncertAssessNum":1},"tml_elements":["nPropNumber","nPropValue","nPropDigits","CombinedUncertainty"],"nPropDigits":4,"nPropNumber":1}],"tml_elements":["PropertyValue"],"VariableValue":[]}]},{"tml_elements":["nReactionDataNumber","Participant","eExpPurpose","sCompiler","sContributor","dateDateAdded","eReactionType","Property","NumValues"],"Participant":[{"RegNum":{"tml_elements":["nOrgNum"],"nOrgNum":5},"nStoichiometricCoef":"1","tml_elements":["RegNum","nStoichiometricCoef","ePhase"],"ePhase":"Crystal"},{"RegNum":{"nOrgNum":7,"tml_elements":["nOrgNum"]},"nSampleNm":1,"nStoichiometricCoef":"-1","ePhase":"Crystal","tml_elements":["RegNum","nSampleNm","nStoichiometricCoef","ePhase"]},{"nStoichiometricCoef":"5","RegNum":{"nOrgNum":6,"tml_elements":["nOrgNum"]},"tml_elements":["RegNum","nStoichiometricCoef","ePhase"],"ePhase":"Liquid"}],"eReactionType":"Other reactions","nReactionDataNumber":3,"sContributor":"TRC","Property":[{"nPropNumber":1,"Property-MethodID":{"PropertyGroup":{"tml_elements":["ReactionStateChangeProp"],"ReactionStateChangeProp":{"ePropName":"Molar enthalpy of reaction, kJ/mol","eMethodName":"Solution calorimetry","tml_elements":["ePropName","eMethodName"]}},"tml_elements":["PropertyGroup"]},"tml_elements":["nPropNumber","Property-MethodID","nTemperature-K","nTemperatureDigits","nPressure-kPa","nPressureDigits","CombinedUncertainty"],"nTemperatureDigits":5,"nTemperature-K":"298.15","CombinedUncertainty":{"tml_elements":["nCombUncertAssessNum","sCombUncertEvaluator","eCombUncertEvalMethod","nCombUncertLevOfConfid"],"eCombUncertEvalMethod":"Propagation of evaluated standard uncertainties","nCombUncertLevOfConfid":95,"nCombUncertAssessNum":1,"sCombUncertEvaluator":"Data file compiler"},"nPressureDigits":3,"nPressure-kPa":"101"}],"eExpPurpose":"Principal objective of the work","dateDateAdded":"3/4/2016","sCompiler":"AB","NumValues":[{"PropertyValue":[{"nPropNumber":1,"nPropDigits":3,"tml_elements":["nPropNumber","nPropValue","nPropDigits","CombinedUncertainty"],"nPropValue":81.9,"CombinedUncertainty":{"nCombExpandUncertValue":2.6,"tml_elements":["nCombUncertAssessNum","nCombExpandUncertValue"],"nCombUncertAssessNum":1}}],"tml_elements":["PropertyValue"],"VariableValue":[]}]}],"PureOrMixtureData":[{"Property":[{"PropPhaseID":{"tml_elements":["ePropPhase"],"ePropPhase":"Crystal"},"nPropNumber":1,"tml_elements":["nPropNumber","Property-MethodID","PropPhaseID","ePresentation","eRefStateType","nRefTemp","nRefTempDigits","nRefPressure","nRefPressureDigits","RefPhaseID","CombinedUncertainty"],"nRefTempDigits":5,"nRefPressure":"101","eRefStateType":"Reference phase with the same composition at fixed temperature and pressure","CombinedUncertainty":{"eCombUncertEvalMethod":"Propagation of evaluated standard uncertainties","nCombUncertLevOfConfid":95,"tml_elements":["nCombUncertAssessNum","sCombUncertEvaluator","eCombUncertEvalMethod","nCombUncertLevOfConfid"],"sCombUncertEvaluator":"Data file compiler","nCombUncertAssessNum":1},"ePresentation":"Difference with the reference state, X-X(REF)","Property-MethodID":{"tml_elements":["PropertyGroup"],"PropertyGroup":{"HeatCapacityAndDerivedProp":{"ePropName":"Molar enthalpy, kJ/mol","eMethodName":"Drop calorimetry","tml_elements":["ePropName","eMethodName"]},"tml_elements":["HeatCapacityAndDerivedProp"]}},"RefPhaseID":{"eRefPhase":"Crystal","tml_elements":["eRefPhase"]},"nRefPressureDigits":3,"nRefTemp":"298.15"}],"eExpPurpose":"Principal objective of the work","NumValues":[{"tml_elements":["PropertyValue"],"PropertyValue":[{"nPropValue":40.5,"CombinedUncertainty":{"nCombExpandUncertValue":1,"tml_elements":["nCombUncertAssessNum","nCombExpandUncertValue"],"nCombUncertAssessNum":1},"nPropNumber":1,"nPropDigits":3,"tml_elements":["nPropNumber","nPropValue","nPropDigits","CombinedUncertainty"]}],"VariableValue":[]},{"VariableValue":[],"tml_elements":["PropertyValue"],"PropertyValue":[{"nPropValue":40.8,"CombinedUncertainty":{"nCombUncertAssessNum":1,"tml_elements":["nCombUncertAssessNum","nCombExpandUncertValue"],"nCombExpandUncertValue":1.3},"nPropNumber":1,"nPropDigits":3,"tml_elements":["nPropNumber","nPropValue","nPropDigits","CombinedUncertainty"]}]},{"PropertyValue":[{"nPropNumber":1,"nPropDigits":3,"tml_elements":["nPropNumber","nPropValue","nPropDigits","CombinedUncertainty"],"nPropValue":40.5,"CombinedUncertainty":{"nCombExpandUncertValue":1,"tml_elements":["nCombUncertAssessNum","nCombExpandUncertValue"],"nCombUncertAssessNum":1}}],"tml_elements":["PropertyValue"],"VariableValue":[]}],"sCompiler":"AB","nPureOrMixtureDataNumber":1,"dateDateAdded":"3/4/2016","Component":[{"tml_elements":["RegNum","nSampleNm"],"nSampleNm":1,"RegNum":{"tml_elements":["nOrgNum"],"nOrgNum":5}}],"PhaseID":[{"ePhase":"Crystal","tml_elements":["ePhase"]}],"tml_elements":["nPureOrMixtureDataNumber","Component","eExpPurpose","sCompiler","sContributor","dateDateAdded","Property","PhaseID","Constraint","NumValues"],"sContributor":"TRC","Constraint":[{"ConstraintPhaseID":{"tml_elements":["eConstraintPhase"],"eConstraintPhase":"Crystal"},"ConstraintID":{"ConstraintType":{"eTemperature":"Temperature, K","tml_elements":["eTemperature"]},"tml_elements":["ConstraintType"]},"nConstraintNumber":1,"nConstrDigits":2,"tml_elements":["nConstraintNumber","ConstraintID","ConstraintPhaseID","nConstraintValue","nConstrDigits"],"nConstraintValue":630},{"ConstraintID":{"tml_elements":["ConstraintType"],"ConstraintType":{"tml_elements":["ePressure"],"ePressure":"Pressure, kPa"}},"nConstrDigits":6,"nConstraintNumber":2,"ConstraintPhaseID":{"tml_elements":["eConstraintPhase"],"eConstraintPhase":"Crystal"},"tml_elements":["nConstraintNumber","ConstraintID","ConstraintPhaseID","nConstraintValue","nConstrDigits"],"nConstraintValue":101.325}]}],"THERMOML_MD5_CHECKSUM":"56dc415bc50c0ff6e952ddb0e046cebf","Compound":[{"sStandardInChIKey":"RYGMFSIKBFXOCR-UHFFFAOYSA-N","sStandardInChI":"InChI=1S/Cu","RegNum":{"tml_elements":["nOrgNum"],"nOrgNum":1},"sFormulaMolec":"Cu","tml_elements":["RegNum","sStandardInChI","sStandardInChIKey","sCommonName","sFormulaMolec"],"sCommonName":["copper","copper element"]},{"sStandardInChIKey":"NINIDFKCEFEMDL-UHFFFAOYSA-N","RegNum":{"nOrgNum":2,"tml_elements":["nOrgNum"]},"sStandardInChI":"InChI=1S/S","tml_elements":["RegNum","sStandardInChI","sStandardInChIKey","sCommonName","sFormulaMolec"],"sCommonName":["sulfur"],"sFormulaMolec":"S"},{"sStandardInChI":"InChI=1S/H2/h1H","RegNum":{"tml_elements":["nOrgNum"],"nOrgNum":3},"sStandardInChIKey":"UFHFLCQGNIYNRP-UHFFFAOYSA-N","sFormulaMolec":"H2","sCommonName":["hydrogen","hydrogen (normal)"],"tml_elements":["RegNum","sStandardInChI","sStandardInChIKey","sCommonName","sFormulaMolec"]},{"RegNum":{"nOrgNum":4,"tml_elements":["nOrgNum"]},"sStandardInChI":"InChI=1S/O2/c1-2","sFormulaMolec":"O2","sStandardInChIKey":"MYMOFIZGZYHOMD-UHFFFAOYSA-N","sCommonName":["oxygen"],"tml_elements":["RegNum","sStandardInChI","sStandardInChIKey","sCommonName","sFormulaMolec"]},{"Sample":[{"purity":[{"nPurityMass":98,"eAnalMeth":["Estimated by the compiler"],"nStep":1,"nPurityMassDigits":2,"tml_elements":["nStep","nPurityMass","nPurityMassDigits","eAnalMeth"]}],"tml_elements":["nSampleNm","eSource","purity"],"nSampleNm":1,"eSource":"Synthesized by the authors"}],"tml_elements":["RegNum","sStandardInChI","sStandardInChIKey","sCommonName","sFormulaMolec","Sample"],"sCommonName":["copper sulfate","copper monosulfate","copper sulfate (CuSO4)","copper(2+) sulfate (1:1)","copper(II) sulfate","cupric sulfate","cupric sulfate anhydrous","cupric sulphate","roman vitriol","sulfuric acid copper(2+) salt (1:1)"],"sFormulaMolec":"CuO4S","sStandardInChIKey":"ARUVKPQLZAKDPS-UHFFFAOYSA-L","sStandardInChI":"InChI=1S/Cu.H2O4S/c;1-5(2,3)4/h;(H2,1,2,3,4)/q+2;/p-2","RegNum":{"tml_elements":["nOrgNum"],"nOrgNum":5}},{"sStandardInChI":"InChI=1S/H2O/h1H2","RegNum":{"nOrgNum":6,"tml_elements":["nOrgNum"]},"sStandardInChIKey":"XLYOFNOQVPJJNP-UHFFFAOYSA-N","sFormulaMolec":"H2O","sCommonName":["water"],"tml_elements":["RegNum","sStandardInChI","sStandardInChIKey","sCommonName","sFormulaMolec"]},{"tml_elements":["RegNum","sStandardInChI","sStandardInChIKey","sCommonName","sFormulaMolec","Sample"],"Sample":[{"nSampleNm":1,"eSource":"Commercial source","purity":[{"nPurityMassDigits":2,"tml_elements":["nStep","nPurityMass","nPurityMassDigits","eAnalMeth"],"nStep":1,"nPurityMass":99,"eAnalMeth":["Chemical analysis"]}],"tml_elements":["nSampleNm","eSource","purity"]}],"sCommonName":["copper(II) sulfate pentahydrate"],"sFormulaMolec":"CuH10O9S","sStandardInChI":"InChI=1S/Cu.H2O4S.5H2O/c;1-5(2,3)4;;;;;/h;(H2,1,2,3,4);5*1H2/q+2;;;;;;/p-2","RegNum":{"nOrgNum":7,"tml_elements":["nOrgNum"]},"sStandardInChIKey":"JZCCFEFSEZPSOG-UHFFFAOYSA-L"}],"Version":{"nVersionMinor":0,"nVersionMajor":2,"tml_elements":["nVersionMajor","nVersionMinor"]},"Citation":{"yrPubYr":"2016","sPubName":"J. Chem. Thermodyn.","dateCit":"2020-09-29","sPage":"142-148","sVol":"95","eType":"journal","eSourceType":"Original","TRCRefID":{"yrYrPub":"2016","sAuthor1":"bis","sAuthor2":"ogo","nAuthorn":"0","tml_elements":["yrYrPub","sAuthor1","sAuthor2","nAuthorn"]},"sAbstract":"This paper presents the results of the thermochemical study of hydrous copper sulfate CuSO4*5H2O performed on a high-temperature heat-flux Tian Calvet microcalorimeter. The samples of two natural chalcanthite (Kosmurun ore deposit, Kazakhstan, and Lavrion deposit, Greece) and synthetic hydrous copper sulfate (blue vitriol) were characterized by X-ray microprobe analysis, X-ray powder diffraction, thermal analysis, FTIR and Raman spectroscopy. The enthalpy of dehydration at T = 298.15 K was measured, and the standard molar enthalpies of formation from the elements were determined by the melt solution calorimetry in accordance with Hess s law. The values of DfH0 m (T = 298.15 K) were found to be (2267.2 +- 4.1) kJ mol-1 for natural chalcanthite and (2272.6 +- 6.0) kJ mol-1 for synthetic hydrous copper sulfate (blue vitriol).","sTitle":"Enthalpy of formation of natural hydrous copper sulfate: Chalcanthite","sDOI":"10.1016/j.jct.2015.12.010","tml_elements":["TRCRefID","eType","eSourceType","sAuthor","sPubName","yrPubYr","dateCit","sTitle","sAbstract","sKeyword","sDOI","sVol","sPage"],"sKeyword":["Enthalpy of formation","Enthalpy of dehydration","Calvet microcalorimetry","Hydrous copper sulfate","Chalcanthite"],"sAuthor":["Bissengaliyeva, M.[Mira]","Ogorodova, L.[Lyubov]","Vigasina, M.[Marina]","Mel'chakova, L.[Lyubov]","Kosova, D.[Dariya]","Bryzgalov, I.[Igor]","Ksenofontov, D.[Dmitrii]"]}}