{"Citation":{"eSourceType":"Original","sAbstract":"The enthalpy of formation of zinc acetate dihydrate (Zn(CH3COO)_2 2H2O) was measured with respect to  crystalline zinc oxide (ZnO), glacial acetic acid (CH3COOH) and liquid water by room temperature solution  calorimetry. The enthalpy of formation was verified by utilizing two independent thermodynamic cycles, using enthalpy of solution measurements in 5 mol L-1 sodium hydroxide (NaOH) and in  5 mol L-1 hydrochloric acid (HCl) solutions. The enthalpy of the reaction ZnO (cr) + 2CH3COOH  (l) + H2O (l) to form Zn(CH3COO)_2 2H2O (cr) is  (65.78 +- 0.36) kJ mol-1 for measurements in 5 mol L-1  NaOH and  (66.25 +- 0.17) kJ mol-1 for measurements in 5 mol L-1 HCl. The standard enthalpy of formation  of Zn(CH3COO)_2 2H2O from the elements is  (1669.35 +- 1.30) kJ mol-1. This work provides the first calorimetric measurement of the enthalpy of formation of Zn(CH3COO)_2 2H2O.","TRCRefID":{"yrYrPub":"2011","nAuthorn":"0","tml_elements":["yrYrPub","sAuthor1","sAuthor2","nAuthorn"],"sAuthor1":"hug","sAuthor2":"nav"},"sTitle":"Enthalpy of formation of zinc acetate dihydrate","sDOI":"10.1016/j.jct.2011.02.004","tml_elements":["TRCRefID","eType","eSourceType","sAuthor","sPubName","yrPubYr","dateCit","sTitle","sAbstract","sKeyword","sDOI","sIDNum","sVol","sPage"],"sKeyword":["Zinc acetate","Enthalpy of formation","Solution calorimetry"],"sAuthor":["Hughes, J. T.[James T.]","Navrotsky, A.[Alexandra]"],"sIDNum":"6","dateCit":"2020-09-29","sPubName":"J. Chem. Thermodyn.","yrPubYr":"2011","sPage":"980-982","sVol":"43","eType":"journal"},"Compound":[{"sCommonName":["sodium hydroxide"],"tml_elements":["RegNum","sStandardInChI","sStandardInChIKey","sCommonName","sFormulaMolec","Sample"],"Sample":[{"nSampleNm":1,"eStatus":"notDescribed","tml_elements":["nSampleNm","eStatus","purity"],"purity":[]}],"sFormulaMolec":"HNaO","sStandardInChIKey":"HEMHJVSKTPXQMS-UHFFFAOYSA-M","RegNum":{"nOrgNum":1,"tml_elements":["nOrgNum"]},"sStandardInChI":"InChI=1S/Na.H2O/h;1H2/q+1;/p-1"},{"RegNum":{"nOrgNum":2,"tml_elements":["nOrgNum"]},"tml_elements":["RegNum","sCommonName","sFormulaMolec"],"sCommonName":["graphite"],"sFormulaMolec":"C"},{"sStandardInChIKey":"HCHKCACWOHOZIP-UHFFFAOYSA-N","sStandardInChI":"InChI=1S/Zn","RegNum":{"tml_elements":["nOrgNum"],"nOrgNum":3},"sFormulaMolec":"Zn","tml_elements":["RegNum","sStandardInChI","sStandardInChIKey","sCommonName","sFormulaMolec"],"sCommonName":["zinc"]},{"sCommonName":["hydrogen","hydrogen (normal)"],"tml_elements":["RegNum","sStandardInChI","sStandardInChIKey","sCommonName","sFormulaMolec"],"sFormulaMolec":"H2","sStandardInChIKey":"UFHFLCQGNIYNRP-UHFFFAOYSA-N","sStandardInChI":"InChI=1S/H2/h1H","RegNum":{"nOrgNum":4,"tml_elements":["nOrgNum"]}},{"RegNum":{"nOrgNum":5,"tml_elements":["nOrgNum"]},"sStandardInChI":"InChI=1S/O2/c1-2","sCommonName":["oxygen"],"tml_elements":["RegNum","sStandardInChI","sStandardInChIKey","sCommonName","sFormulaMolec"],"sStandardInChIKey":"MYMOFIZGZYHOMD-UHFFFAOYSA-N","sFormulaMolec":"O2"},{"sStandardInChI":"InChI=1S/ClH/h1H","RegNum":{"nOrgNum":6,"tml_elements":["nOrgNum"]},"sStandardInChIKey":"VEXZGXHMUGYJMC-UHFFFAOYSA-N","tml_elements":["RegNum","sStandardInChI","sStandardInChIKey","sCommonName","sFormulaMolec","Sample"],"sCommonName":["hydrogen chloride"],"Sample":[{"purity":[{"nStep":1,"nPurityMassDigits":3,"tml_elements":["nStep","nPurityMass","nPurityMassDigits","eAnalMeth"],"eAnalMeth":["Stated by supplier"],"nPurityMass":99.2}],"tml_elements":["nSampleNm","eSource","purity"],"eSource":"Commercial source","nSampleNm":1}],"sFormulaMolec":"ClH"},{"tml_elements":["RegNum","sStandardInChI","sStandardInChIKey","sCommonName","sFormulaMolec","Sample"],"Sample":[{"nSampleNm":1,"eSource":"Commercial source","purity":[{"nPurityMass":98,"eAnalMeth":["Estimated by the compiler"],"nStep":1,"tml_elements":["nStep","nPurityMass","nPurityMassDigits","eAnalMeth"],"nPurityMassDigits":2}],"tml_elements":["nSampleNm","eSource","purity"]}],"sCommonName":["zinc(II) acetate dihydrate","zinc acetate dihydrate"],"sStandardInChIKey":"BEAZKUGSCHFXIQ-UHFFFAOYSA-L","sFormulaMolec":"C4H10O6Zn","sStandardInChI":"InChI=1S/2C2H4O2.2H2O.Zn/c2*1-2(3)4;;;/h2*1H3,(H,3,4);2*1H2;/q;;;;+2/p-2","RegNum":{"nOrgNum":7,"tml_elements":["nOrgNum"]}},{"Sample":[{"nSampleNm":1,"eSource":"Commercial source","tml_elements":["nSampleNm","eSource","purity"],"purity":[{"eAnalMeth":["Stated by supplier"],"nPurityMass":99.99,"tml_elements":["nStep","nPurityMass","nPurityMassDigits","eAnalMeth"],"nPurityMassDigits":4,"nStep":1}]}],"tml_elements":["RegNum","sStandardInChI","sStandardInChIKey","sCommonName","sFormulaMolec","Sample"],"sCommonName":["zinc(II) oxide","zinc oxide"],"sFormulaMolec":"OZn","sStandardInChIKey":"RNWHGQJWIACOKP-UHFFFAOYSA-N","sStandardInChI":"InChI=1S/O.Zn/q-2;+2","RegNum":{"tml_elements":["nOrgNum"],"nOrgNum":8}},{"sStandardInChIKey":"QTBSBXVTEAMEQO-UHFFFAOYSA-N","sStandardInChI":"InChI=1S/C2H4O2/c1-2(3)4/h1H3,(H,3,4)","RegNum":{"nOrgNum":9,"tml_elements":["nOrgNum"]},"sCommonName":["acetic acid","ethanoic acid","methanecarboxylic acid"],"Sample":[{"nSampleNm":1,"eSource":"Commercial source","tml_elements":["nSampleNm","eSource","purity"],"purity":[{"nPurityMass":99.7,"eAnalMeth":["Stated by supplier"],"nStep":1,"tml_elements":["nStep","nPurityMass","nPurityMassDigits","eAnalMeth"],"nPurityMassDigits":3}]}],"tml_elements":["RegNum","sStandardInChI","sStandardInChIKey","sCommonName","sFormulaMolec","Sample"],"sFormulaMolec":"C2H4O2"},{"tml_elements":["RegNum","sStandardInChI","sStandardInChIKey","sCommonName","sFormulaMolec","Sample"],"Sample":[{"purity":[{"nStep":1,"tml_elements":["nStep","ePurifMethod"],"ePurifMethod":["De-gassed by boiling or ultrasonically"]},{"nStep":2,"nPurityMassDigits":3,"tml_elements":["nStep","nPurityMass","nPurityMassDigits","eAnalMeth"],"eAnalMeth":["Estimated by the compiler"],"nPurityMass":99.9}],"tml_elements":["nSampleNm","eSource","purity"],"nSampleNm":1,"eSource":"Commercial source"}],"sCommonName":["water"],"sFormulaMolec":"H2O","sStandardInChIKey":"XLYOFNOQVPJJNP-UHFFFAOYSA-N","RegNum":{"tml_elements":["nOrgNum"],"nOrgNum":10},"sStandardInChI":"InChI=1S/H2O/h1H2"}],"THERMOML_MD5_CHECKSUM":"704ae901f65f4c4212e5297adc4087a1","PureOrMixtureData":[{"NumValues":[{"VariableValue":[{"nVarDigits":2,"tml_elements":["nVarNumber","nVarValue","nVarDigits"],"nVarNumber":1,"nVarValue":0},{"nVarValue":298,"nVarDigits":3,"tml_elements":["nVarNumber","nVarValue","nVarDigits"],"nVarNumber":2},{"nVarDigits":3,"tml_elements":["nVarNumber","nVarValue","nVarDigits"],"nVarNumber":3,"nVarValue":101},{"nVarValue":5,"nVarNumber":4,"nVarDigits":1,"tml_elements":["nVarNumber","nVarValue","nVarDigits"]}],"PropertyValue":[{"tml_elements":["nPropNumber","nPropValue","nPropDigits","CombinedUncertainty"],"nPropNumber":1,"nPropDigits":4,"CombinedUncertainty":{"nCombUncertAssessNum":1,"tml_elements":["nCombUncertAssessNum","nCombExpandUncertValue"],"nCombExpandUncertValue":0.7},"nPropValue":-55.35}],"tml_elements":["VariableValue","PropertyValue"]}],"dateDateAdded":"6/3/2013","nPureOrMixtureDataNumber":1,"sCompiler":"VVD","Property":[{"CombinedUncertainty":{"tml_elements":["nCombUncertAssessNum","sCombUncertEvaluator","eCombUncertEvalMethod","nCombUncertLevOfConfid"],"nCombUncertLevOfConfid":95,"eCombUncertEvalMethod":"Propagation of evaluated standard uncertainties","nCombUncertAssessNum":1,"sCombUncertEvaluator":"Data file compiler"},"Solvent":{"RegNum":[{"nOrgNum":1,"tml_elements":["nOrgNum"]},{"tml_elements":["nOrgNum"],"nOrgNum":10}],"tml_elements":["RegNum"]},"RefPhaseID":{"tml_elements":["eRefPhase"],"eRefPhase":"Liquid"},"Property-MethodID":{"PropertyGroup":{"ExcessPartialApparentEnergyProp":{"tml_elements":["ePropName","eMethodName"],"ePropName":"Molar enthalpy of solution, kJ/mol","eMethodName":"Titration calorimetry"},"tml_elements":["ExcessPartialApparentEnergyProp"]},"tml_elements":["PropertyGroup"]},"eRefStateType":"Pure solute at the same temperature and pressure","PropPhaseID":{"tml_elements":["ePropPhase"],"ePropPhase":"Liquid"},"nPropNumber":1,"ePresentation":"Difference with the reference state, X-X(REF)","tml_elements":["nPropNumber","Property-MethodID","PropPhaseID","ePresentation","eRefStateType","RefPhaseID","Solvent","CombinedUncertainty"]}],"eExpPurpose":"Principal objective of the work","sContributor":"XXX","Variable":[{"tml_elements":["nVarNumber","VariableID","VarPhaseID"],"VarPhaseID":{"tml_elements":["eVarPhase"],"eVarPhase":"Liquid"},"nVarNumber":1,"VariableID":{"VariableType":{"tml_elements":["eComponentComposition"],"eComponentComposition":"Amount concentration (molarity), mol/dm3"},"tml_elements":["VariableType","RegNum"],"RegNum":{"tml_elements":["nOrgNum"],"nOrgNum":9}}},{"VariableID":{"VariableType":{"eTemperature":"Temperature, K","tml_elements":["eTemperature"]},"tml_elements":["VariableType"]},"VarPhaseID":{"tml_elements":["eVarPhase"],"eVarPhase":"Liquid"},"nVarNumber":2,"tml_elements":["nVarNumber","VariableID","VarPhaseID"]},{"VariableID":{"VariableType":{"ePressure":"Pressure, kPa","tml_elements":["ePressure"]},"tml_elements":["VariableType"]},"tml_elements":["nVarNumber","VariableID","VarPhaseID"],"VarPhaseID":{"tml_elements":["eVarPhase"],"eVarPhase":"Liquid"},"nVarNumber":3},{"nVarNumber":4,"VarPhaseID":{"tml_elements":["eVarPhase"],"eVarPhase":"Liquid"},"tml_elements":["nVarNumber","VariableID","VarPhaseID"],"VariableID":{"tml_elements":["VariableType","RegNum"],"VariableType":{"tml_elements":["eSolventComposition"],"eSolventComposition":"Solvent: Amount concentration (molarity), mol/dm3"},"RegNum":{"nOrgNum":1,"tml_elements":["nOrgNum"]}}}],"Component":[{"tml_elements":["RegNum","nSampleNm"],"nSampleNm":1,"RegNum":{"nOrgNum":9,"tml_elements":["nOrgNum"]}},{"nSampleNm":1,"RegNum":{"tml_elements":["nOrgNum"],"nOrgNum":1},"tml_elements":["RegNum","nSampleNm"]},{"tml_elements":["RegNum","nSampleNm"],"nSampleNm":1,"RegNum":{"tml_elements":["nOrgNum"],"nOrgNum":10}}],"tml_elements":["nPureOrMixtureDataNumber","Component","eExpPurpose","sCompiler","sContributor","dateDateAdded","Property","PhaseID","Variable","NumValues"],"PhaseID":[{"tml_elements":["ePhase"],"ePhase":"Liquid"}]},{"PhaseID":[{"ePhase":"Liquid","tml_elements":["ePhase"]}],"tml_elements":["nPureOrMixtureDataNumber","Component","eExpPurpose","sCompiler","sContributor","dateDateAdded","Property","PhaseID","Variable","NumValues"],"Component":[{"tml_elements":["RegNum","nSampleNm"],"RegNum":{"tml_elements":["nOrgNum"],"nOrgNum":1},"nSampleNm":1},{"nSampleNm":1,"RegNum":{"tml_elements":["nOrgNum"],"nOrgNum":7},"tml_elements":["RegNum","nSampleNm"]},{"tml_elements":["RegNum","nSampleNm"],"nSampleNm":1,"RegNum":{"nOrgNum":10,"tml_elements":["nOrgNum"]}}],"Variable":[{"VariableID":{"tml_elements":["VariableType","RegNum"],"VariableType":{"tml_elements":["eComponentComposition"],"eComponentComposition":"Amount concentration (molarity), mol/dm3"},"RegNum":{"nOrgNum":7,"tml_elements":["nOrgNum"]}},"tml_elements":["nVarNumber","VariableID","VarPhaseID"],"VarPhaseID":{"eVarPhase":"Liquid","tml_elements":["eVarPhase"]},"nVarNumber":1},{"tml_elements":["nVarNumber","VariableID","VarPhaseID"],"VarPhaseID":{"tml_elements":["eVarPhase"],"eVarPhase":"Liquid"},"nVarNumber":2,"VariableID":{"tml_elements":["VariableType"],"VariableType":{"tml_elements":["eTemperature"],"eTemperature":"Temperature, K"}}},{"VariableID":{"VariableType":{"ePressure":"Pressure, kPa","tml_elements":["ePressure"]},"tml_elements":["VariableType"]},"tml_elements":["nVarNumber","VariableID","VarPhaseID"],"nVarNumber":3,"VarPhaseID":{"eVarPhase":"Liquid","tml_elements":["eVarPhase"]}},{"VariableID":{"RegNum":{"nOrgNum":1,"tml_elements":["nOrgNum"]},"VariableType":{"eSolventComposition":"Solvent: Amount concentration (molarity), mol/dm3","tml_elements":["eSolventComposition"]},"tml_elements":["VariableType","RegNum"]},"nVarNumber":4,"VarPhaseID":{"tml_elements":["eVarPhase"],"eVarPhase":"Liquid"},"tml_elements":["nVarNumber","VariableID","VarPhaseID"]}],"sContributor":"XXX","Property":[{"ePresentation":"Difference with the reference state, X-X(REF)","tml_elements":["nPropNumber","Property-MethodID","PropPhaseID","ePresentation","eRefStateType","RefPhaseID","Solvent","CombinedUncertainty"],"PropPhaseID":{"ePropPhase":"Liquid","tml_elements":["ePropPhase"]},"nPropNumber":1,"eRefStateType":"Pure solute at the same temperature and pressure","Property-MethodID":{"PropertyGroup":{"tml_elements":["ExcessPartialApparentEnergyProp"],"ExcessPartialApparentEnergyProp":{"tml_elements":["ePropName","eMethodName"],"eMethodName":"Titration calorimetry","ePropName":"Molar enthalpy of solution, kJ/mol"}},"tml_elements":["PropertyGroup"]},"RefPhaseID":{"eRefPhase":"Liquid","tml_elements":["eRefPhase"]},"CombinedUncertainty":{"tml_elements":["nCombUncertAssessNum","sCombUncertEvaluator","eCombUncertEvalMethod","nCombUncertLevOfConfid"],"eCombUncertEvalMethod":"Propagation of evaluated standard uncertainties","nCombUncertLevOfConfid":95,"nCombUncertAssessNum":1,"sCombUncertEvaluator":"Data file compiler"},"Solvent":{"RegNum":[{"nOrgNum":1,"tml_elements":["nOrgNum"]},{"nOrgNum":10,"tml_elements":["nOrgNum"]}],"tml_elements":["RegNum"]}}],"eExpPurpose":"Principal objective of the work","sCompiler":"VVD","dateDateAdded":"6/3/2013","nPureOrMixtureDataNumber":2,"NumValues":[{"VariableValue":[{"tml_elements":["nVarNumber","nVarValue","nVarDigits"],"nVarDigits":2,"nVarNumber":1,"nVarValue":0},{"nVarValue":298,"nVarNumber":2,"tml_elements":["nVarNumber","nVarValue","nVarDigits"],"nVarDigits":3},{"nVarValue":101,"nVarNumber":3,"tml_elements":["nVarNumber","nVarValue","nVarDigits"],"nVarDigits":3},{"nVarValue":5,"nVarDigits":1,"tml_elements":["nVarNumber","nVarValue","nVarDigits"],"nVarNumber":4}],"tml_elements":["VariableValue","PropertyValue"],"PropertyValue":[{"tml_elements":["nPropNumber","nPropValue","nPropDigits","CombinedUncertainty"],"nPropDigits":4,"nPropNumber":1,"nPropValue":-44.78,"CombinedUncertainty":{"nCombExpandUncertValue":0.46,"tml_elements":["nCombUncertAssessNum","nCombExpandUncertValue"],"nCombUncertAssessNum":1}}]}]},{"Variable":[{"VariableID":{"VariableType":{"tml_elements":["eComponentComposition"],"eComponentComposition":"Amount concentration (molarity), mol/dm3"},"tml_elements":["VariableType","RegNum"],"RegNum":{"nOrgNum":7,"tml_elements":["nOrgNum"]}},"tml_elements":["nVarNumber","VariableID","VarPhaseID"],"nVarNumber":1,"VarPhaseID":{"tml_elements":["eVarPhase"],"eVarPhase":"Liquid"}},{"VariableID":{"VariableType":{"eTemperature":"Temperature, K","tml_elements":["eTemperature"]},"tml_elements":["VariableType"]},"tml_elements":["nVarNumber","VariableID","VarPhaseID"],"nVarNumber":2,"VarPhaseID":{"eVarPhase":"Liquid","tml_elements":["eVarPhase"]}},{"VariableID":{"tml_elements":["VariableType"],"VariableType":{"tml_elements":["ePressure"],"ePressure":"Pressure, kPa"}},"nVarNumber":3,"VarPhaseID":{"tml_elements":["eVarPhase"],"eVarPhase":"Liquid"},"tml_elements":["nVarNumber","VariableID","VarPhaseID"]},{"tml_elements":["nVarNumber","VariableID","VarPhaseID"],"nVarNumber":4,"VarPhaseID":{"tml_elements":["eVarPhase"],"eVarPhase":"Liquid"},"VariableID":{"RegNum":{"tml_elements":["nOrgNum"],"nOrgNum":6},"VariableType":{"tml_elements":["eSolventComposition"],"eSolventComposition":"Solvent: Amount concentration (molarity), mol/dm3"},"tml_elements":["VariableType","RegNum"]}}],"Component":[{"tml_elements":["RegNum","nSampleNm"],"nSampleNm":1,"RegNum":{"nOrgNum":7,"tml_elements":["nOrgNum"]}},{"tml_elements":["RegNum","nSampleNm"],"nSampleNm":1,"RegNum":{"nOrgNum":6,"tml_elements":["nOrgNum"]}},{"nSampleNm":1,"RegNum":{"tml_elements":["nOrgNum"],"nOrgNum":10},"tml_elements":["RegNum","nSampleNm"]}],"NumValues":[{"VariableValue":[{"nVarDigits":2,"tml_elements":["nVarNumber","nVarValue","nVarDigits"],"nVarNumber":1,"nVarValue":0},{"nVarValue":298,"nVarDigits":3,"tml_elements":["nVarNumber","nVarValue","nVarDigits"],"nVarNumber":2},{"tml_elements":["nVarNumber","nVarValue","nVarDigits"],"nVarDigits":3,"nVarNumber":3,"nVarValue":101},{"nVarValue":5,"nVarDigits":1,"tml_elements":["nVarNumber","nVarValue","nVarDigits"],"nVarNumber":4}],"tml_elements":["VariableValue","PropertyValue"],"PropertyValue":[{"tml_elements":["nPropNumber","nPropValue","nPropDigits","CombinedUncertainty"],"nPropNumber":1,"nPropDigits":3,"CombinedUncertainty":{"nCombUncertAssessNum":1,"nCombExpandUncertValue":0.11,"tml_elements":["nCombUncertAssessNum","nCombExpandUncertValue"]},"nPropValue":-5.97}]}],"sCompiler":"VVD","nPureOrMixtureDataNumber":3,"dateDateAdded":"6/3/2013","eExpPurpose":"Principal objective of the work","Property":[{"PropPhaseID":{"ePropPhase":"Liquid","tml_elements":["ePropPhase"]},"nPropNumber":1,"ePresentation":"Difference with the reference state, X-X(REF)","tml_elements":["nPropNumber","Property-MethodID","PropPhaseID","ePresentation","eRefStateType","RefPhaseID","Solvent","CombinedUncertainty"],"RefPhaseID":{"tml_elements":["eRefPhase"],"eRefPhase":"Liquid"},"Property-MethodID":{"PropertyGroup":{"ExcessPartialApparentEnergyProp":{"tml_elements":["ePropName","eMethodName"],"eMethodName":"Titration calorimetry","ePropName":"Molar enthalpy of solution, kJ/mol"},"tml_elements":["ExcessPartialApparentEnergyProp"]},"tml_elements":["PropertyGroup"]},"eRefStateType":"Pure solute at the same temperature and pressure","CombinedUncertainty":{"eCombUncertEvalMethod":"Propagation of evaluated standard uncertainties","nCombUncertLevOfConfid":95,"tml_elements":["nCombUncertAssessNum","sCombUncertEvaluator","eCombUncertEvalMethod","nCombUncertLevOfConfid"],"sCombUncertEvaluator":"Data file compiler","nCombUncertAssessNum":1},"Solvent":{"RegNum":[{"tml_elements":["nOrgNum"],"nOrgNum":6},{"tml_elements":["nOrgNum"],"nOrgNum":10}],"tml_elements":["RegNum"]}}],"sContributor":"XXX","PhaseID":[{"tml_elements":["ePhase"],"ePhase":"Liquid"}],"tml_elements":["nPureOrMixtureDataNumber","Component","eExpPurpose","sCompiler","sContributor","dateDateAdded","Property","PhaseID","Variable","NumValues"]},{"eExpPurpose":"Principal objective of the work","Property":[{"ePresentation":"Difference with the reference state, X-X(REF)","tml_elements":["nPropNumber","Property-MethodID","PropPhaseID","ePresentation","eRefStateType","RefPhaseID","Solvent","CombinedUncertainty"],"PropPhaseID":{"tml_elements":["ePropPhase"],"ePropPhase":"Liquid"},"nPropNumber":1,"eRefStateType":"Pure solute at the same temperature and pressure","Property-MethodID":{"PropertyGroup":{"ExcessPartialApparentEnergyProp":{"eMethodName":"Titration calorimetry","ePropName":"Molar enthalpy of solution, kJ/mol","tml_elements":["ePropName","eMethodName"]},"tml_elements":["ExcessPartialApparentEnergyProp"]},"tml_elements":["PropertyGroup"]},"RefPhaseID":{"tml_elements":["eRefPhase"],"eRefPhase":"Liquid"},"CombinedUncertainty":{"nCombUncertAssessNum":1,"sCombUncertEvaluator":"Data file compiler","tml_elements":["nCombUncertAssessNum","sCombUncertEvaluator","eCombUncertEvalMethod","nCombUncertLevOfConfid"],"eCombUncertEvalMethod":"Propagation of evaluated standard uncertainties","nCombUncertLevOfConfid":95},"Solvent":{"tml_elements":["RegNum"],"RegNum":[{"tml_elements":["nOrgNum"],"nOrgNum":6},{"nOrgNum":10,"tml_elements":["nOrgNum"]}]}}],"sCompiler":"VVD","dateDateAdded":"6/3/2013","nPureOrMixtureDataNumber":4,"NumValues":[{"PropertyValue":[{"nPropDigits":2,"nPropNumber":1,"tml_elements":["nPropNumber","nPropValue","nPropDigits","CombinedUncertainty"],"CombinedUncertainty":{"tml_elements":["nCombUncertAssessNum","nCombExpandUncertValue"],"nCombExpandUncertValue":0.02,"nCombUncertAssessNum":1},"nPropValue":-0.21}],"tml_elements":["VariableValue","PropertyValue"],"VariableValue":[{"nVarNumber":1,"tml_elements":["nVarNumber","nVarValue","nVarDigits"],"nVarDigits":2,"nVarValue":0},{"nVarValue":298,"nVarNumber":2,"tml_elements":["nVarNumber","nVarValue","nVarDigits"],"nVarDigits":3},{"nVarDigits":3,"tml_elements":["nVarNumber","nVarValue","nVarDigits"],"nVarNumber":3,"nVarValue":101},{"tml_elements":["nVarNumber","nVarValue","nVarDigits"],"nVarDigits":1,"nVarNumber":4,"nVarValue":5}]}],"PhaseID":[{"ePhase":"Liquid","tml_elements":["ePhase"]}],"tml_elements":["nPureOrMixtureDataNumber","Component","eExpPurpose","sCompiler","sContributor","dateDateAdded","Property","PhaseID","Variable","NumValues"],"Component":[{"RegNum":{"nOrgNum":9,"tml_elements":["nOrgNum"]},"nSampleNm":1,"tml_elements":["RegNum","nSampleNm"]},{"nSampleNm":1,"RegNum":{"nOrgNum":6,"tml_elements":["nOrgNum"]},"tml_elements":["RegNum","nSampleNm"]},{"nSampleNm":1,"RegNum":{"nOrgNum":10,"tml_elements":["nOrgNum"]},"tml_elements":["RegNum","nSampleNm"]}],"Variable":[{"nVarNumber":1,"VarPhaseID":{"eVarPhase":"Liquid","tml_elements":["eVarPhase"]},"tml_elements":["nVarNumber","VariableID","VarPhaseID"],"VariableID":{"tml_elements":["VariableType","RegNum"],"VariableType":{"eComponentComposition":"Amount concentration (molarity), mol/dm3","tml_elements":["eComponentComposition"]},"RegNum":{"tml_elements":["nOrgNum"],"nOrgNum":9}}},{"nVarNumber":2,"VarPhaseID":{"tml_elements":["eVarPhase"],"eVarPhase":"Liquid"},"tml_elements":["nVarNumber","VariableID","VarPhaseID"],"VariableID":{"tml_elements":["VariableType"],"VariableType":{"eTemperature":"Temperature, K","tml_elements":["eTemperature"]}}},{"VarPhaseID":{"tml_elements":["eVarPhase"],"eVarPhase":"Liquid"},"nVarNumber":3,"tml_elements":["nVarNumber","VariableID","VarPhaseID"],"VariableID":{"tml_elements":["VariableType"],"VariableType":{"ePressure":"Pressure, kPa","tml_elements":["ePressure"]}}},{"VarPhaseID":{"eVarPhase":"Liquid","tml_elements":["eVarPhase"]},"nVarNumber":4,"tml_elements":["nVarNumber","VariableID","VarPhaseID"],"VariableID":{"tml_elements":["VariableType","RegNum"],"VariableType":{"eSolventComposition":"Solvent: Amount concentration (molarity), mol/dm3","tml_elements":["eSolventComposition"]},"RegNum":{"nOrgNum":6,"tml_elements":["nOrgNum"]}}}],"sContributor":"XXX"},{"Component":[{"RegNum":{"tml_elements":["nOrgNum"],"nOrgNum":1},"nSampleNm":1,"tml_elements":["RegNum","nSampleNm"]},{"tml_elements":["RegNum","nSampleNm"],"RegNum":{"nOrgNum":8,"tml_elements":["nOrgNum"]},"nSampleNm":1},{"RegNum":{"nOrgNum":10,"tml_elements":["nOrgNum"]},"nSampleNm":1,"tml_elements":["RegNum","nSampleNm"]}],"PhaseID":[{"tml_elements":["ePhase"],"ePhase":"Liquid"}],"tml_elements":["nPureOrMixtureDataNumber","Component","eExpPurpose","sCompiler","sContributor","dateDateAdded","Property","PhaseID","Variable","NumValues"],"Variable":[{"VarPhaseID":{"tml_elements":["eVarPhase"],"eVarPhase":"Liquid"},"nVarNumber":1,"tml_elements":["nVarNumber","VariableID","VarPhaseID"],"VariableID":{"RegNum":{"nOrgNum":8,"tml_elements":["nOrgNum"]},"tml_elements":["VariableType","RegNum"],"VariableType":{"eComponentComposition":"Amount concentration (molarity), mol/dm3","tml_elements":["eComponentComposition"]}}},{"tml_elements":["nVarNumber","VariableID","VarPhaseID"],"VarPhaseID":{"eVarPhase":"Liquid","tml_elements":["eVarPhase"]},"nVarNumber":2,"VariableID":{"VariableType":{"eTemperature":"Temperature, K","tml_elements":["eTemperature"]},"tml_elements":["VariableType"]}},{"VariableID":{"VariableType":{"tml_elements":["ePressure"],"ePressure":"Pressure, kPa"},"tml_elements":["VariableType"]},"tml_elements":["nVarNumber","VariableID","VarPhaseID"],"VarPhaseID":{"tml_elements":["eVarPhase"],"eVarPhase":"Liquid"},"nVarNumber":3},{"VariableID":{"VariableType":{"eSolventComposition":"Solvent: Amount concentration (molarity), mol/dm3","tml_elements":["eSolventComposition"]},"tml_elements":["VariableType","RegNum"],"RegNum":{"nOrgNum":1,"tml_elements":["nOrgNum"]}},"tml_elements":["nVarNumber","VariableID","VarPhaseID"],"VarPhaseID":{"tml_elements":["eVarPhase"],"eVarPhase":"Liquid"},"nVarNumber":4}],"sContributor":"XXX","Property":[{"ePresentation":"Difference with the reference state, X-X(REF)","tml_elements":["nPropNumber","Property-MethodID","PropPhaseID","ePresentation","eRefStateType","RefPhaseID","Solvent","CombinedUncertainty"],"PropPhaseID":{"ePropPhase":"Liquid","tml_elements":["ePropPhase"]},"nPropNumber":1,"Solvent":{"RegNum":[{"tml_elements":["nOrgNum"],"nOrgNum":1},{"nOrgNum":10,"tml_elements":["nOrgNum"]}],"tml_elements":["RegNum"]},"CombinedUncertainty":{"eCombUncertEvalMethod":"Propagation of evaluated standard uncertainties","nCombUncertLevOfConfid":95,"tml_elements":["nCombUncertAssessNum","sCombUncertEvaluator","eCombUncertEvalMethod","nCombUncertLevOfConfid"],"sCombUncertEvaluator":"Data file compiler","nCombUncertAssessNum":1},"eRefStateType":"Pure solute at the same temperature and pressure","RefPhaseID":{"eRefPhase":"Liquid","tml_elements":["eRefPhase"]},"Property-MethodID":{"tml_elements":["PropertyGroup"],"PropertyGroup":{"tml_elements":["ExcessPartialApparentEnergyProp"],"ExcessPartialApparentEnergyProp":{"tml_elements":["ePropName","eMethodName"],"ePropName":"Molar enthalpy of solution, kJ/mol","eMethodName":"Titration calorimetry"}}}}],"eExpPurpose":"Principal objective of the work","NumValues":[{"tml_elements":["VariableValue","PropertyValue"],"PropertyValue":[{"tml_elements":["nPropNumber","nPropValue","nPropDigits","CombinedUncertainty"],"nPropDigits":2,"nPropNumber":1,"CombinedUncertainty":{"nCombUncertAssessNum":1,"nCombExpandUncertValue":0.0026,"tml_elements":["nCombUncertAssessNum","nCombExpandUncertValue"]},"nPropValue":-0.0015}],"VariableValue":[{"nVarValue":0,"nVarNumber":1,"tml_elements":["nVarNumber","nVarValue","nVarDigits"],"nVarDigits":2},{"nVarDigits":3,"tml_elements":["nVarNumber","nVarValue","nVarDigits"],"nVarNumber":2,"nVarValue":298},{"tml_elements":["nVarNumber","nVarValue","nVarDigits"],"nVarDigits":3,"nVarNumber":3,"nVarValue":101},{"nVarValue":5,"nVarNumber":4,"nVarDigits":1,"tml_elements":["nVarNumber","nVarValue","nVarDigits"]}]}],"sCompiler":"VVD","dateDateAdded":"6/3/2013","nPureOrMixtureDataNumber":5}],"ReactionData":[{"Participant":[{"RegNum":{"tml_elements":["nOrgNum"],"nOrgNum":9},"nStoichiometricCoef":"-2","nSampleNm":1,"tml_elements":["RegNum","nSampleNm","nStoichiometricCoef","ePhase"],"ePhase":"Liquid"},{"nStoichiometricCoef":"-1","nSampleNm":1,"RegNum":{"tml_elements":["nOrgNum"],"nOrgNum":8},"tml_elements":["RegNum","nSampleNm","nStoichiometricCoef","ePhase"],"ePhase":"Crystal"},{"tml_elements":["RegNum","nSampleNm","nStoichiometricCoef","ePhase"],"ePhase":"Crystal","RegNum":{"tml_elements":["nOrgNum"],"nOrgNum":7},"nStoichiometricCoef":"1","nSampleNm":1},{"RegNum":{"tml_elements":["nOrgNum"],"nOrgNum":10},"nSampleNm":1,"nStoichiometricCoef":"-1","ePhase":"Liquid","tml_elements":["RegNum","nSampleNm","nStoichiometricCoef","ePhase"]}],"tml_elements":["nReactionDataNumber","Participant","eExpPurpose","sCompiler","sContributor","dateDateAdded","eReactionType","Property","NumValues"],"eReactionType":"Other reactions","nReactionDataNumber":1,"sContributor":"XXX","Property":[{"nTemperatureDigits":3,"Property-MethodID":{"tml_elements":["PropertyGroup"],"PropertyGroup":{"tml_elements":["ReactionStateChangeProp"],"ReactionStateChangeProp":{"ePropName":"Molar enthalpy of reaction, kJ/mol","eMethodName":"Solution calorimetry","tml_elements":["ePropName","eMethodName"]}}},"nPressure-kPa":"101.3","nPressureDigits":4,"CombinedUncertainty":{"tml_elements":["nCombUncertAssessNum","sCombUncertEvaluator","eCombUncertEvalMethod","nCombUncertLevOfConfid"],"eCombUncertEvalMethod":"Propagation of evaluated standard uncertainties","nCombUncertLevOfConfid":95,"nCombUncertAssessNum":1,"sCombUncertEvaluator":"Data file compiler"},"nTemperature-K":"298","tml_elements":["nPropNumber","Property-MethodID","nTemperature-K","nTemperatureDigits","nPressure-kPa","nPressureDigits","CombinedUncertainty"],"nPropNumber":1}],"eExpPurpose":"Principal objective of the work","dateDateAdded":"6/3/2013","sCompiler":"VVD","NumValues":[{"PropertyValue":[{"nPropDigits":4,"nPropNumber":1,"tml_elements":["nPropNumber","nPropValue","nPropDigits","CombinedUncertainty"],"CombinedUncertainty":{"tml_elements":["nCombUncertAssessNum","nCombExpandUncertValue"],"nCombExpandUncertValue":1.5,"nCombUncertAssessNum":1},"nPropValue":-65.42}],"tml_elements":["PropertyValue"],"VariableValue":[]}]},{"sContributor":"XXX","nReactionDataNumber":2,"Participant":[{"nSampleNm":1,"nStoichiometricCoef":"-2","RegNum":{"tml_elements":["nOrgNum"],"nOrgNum":9},"ePhase":"Liquid","tml_elements":["RegNum","nSampleNm","nStoichiometricCoef","ePhase"]},{"ePhase":"Crystal","tml_elements":["RegNum","nSampleNm","nStoichiometricCoef","ePhase"],"nSampleNm":1,"nStoichiometricCoef":"-1","RegNum":{"tml_elements":["nOrgNum"],"nOrgNum":8}},{"ePhase":"Crystal","tml_elements":["RegNum","nSampleNm","nStoichiometricCoef","ePhase"],"nSampleNm":1,"nStoichiometricCoef":"1","RegNum":{"tml_elements":["nOrgNum"],"nOrgNum":7}},{"ePhase":"Liquid","tml_elements":["RegNum","nSampleNm","nStoichiometricCoef","ePhase"],"nSampleNm":1,"nStoichiometricCoef":"-1","RegNum":{"nOrgNum":10,"tml_elements":["nOrgNum"]}}],"tml_elements":["nReactionDataNumber","Participant","eExpPurpose","sCompiler","sContributor","dateDateAdded","eReactionType","Property","NumValues"],"eReactionType":"Other reactions","NumValues":[{"VariableValue":[],"tml_elements":["PropertyValue"],"PropertyValue":[{"CombinedUncertainty":{"tml_elements":["nCombUncertAssessNum","nCombExpandUncertValue"],"nCombExpandUncertValue":0.36,"nCombUncertAssessNum":1},"nPropValue":-65.85,"tml_elements":["nPropNumber","nPropValue","nPropDigits","CombinedUncertainty"],"nPropDigits":4,"nPropNumber":1}]}],"dateDateAdded":"6/3/2013","sCompiler":"VVD","eExpPurpose":"Principal objective of the work","Property":[{"Property-MethodID":{"PropertyGroup":{"tml_elements":["ReactionStateChangeProp"],"ReactionStateChangeProp":{"eMethodName":"Solution calorimetry","ePropName":"Molar enthalpy of reaction, kJ/mol","tml_elements":["ePropName","eMethodName"]}},"tml_elements":["PropertyGroup"]},"nTemperatureDigits":3,"nTemperature-K":"298","CombinedUncertainty":{"tml_elements":["nCombUncertAssessNum","sCombUncertEvaluator","eCombUncertEvalMethod","nCombUncertLevOfConfid"],"nCombUncertLevOfConfid":95,"eCombUncertEvalMethod":"Propagation of evaluated standard uncertainties","nCombUncertAssessNum":1,"sCombUncertEvaluator":"Data file compiler"},"nPressure-kPa":"101.3","nPressureDigits":4,"nPropNumber":1,"tml_elements":["nPropNumber","Property-MethodID","nTemperature-K","nTemperatureDigits","nPressure-kPa","nPressureDigits","CombinedUncertainty"]}]},{"nReactionDataNumber":3,"sContributor":"XXX","Participant":[{"tml_elements":["RegNum","nStoichiometricCoef","ePhase"],"ePhase":"Crystal","nStoichiometricCoef":"-4","RegNum":{"nOrgNum":2,"tml_elements":["nOrgNum"]}},{"ePhase":"Crystal","tml_elements":["RegNum","nStoichiometricCoef","ePhase"],"RegNum":{"tml_elements":["nOrgNum"],"nOrgNum":3},"nStoichiometricCoef":"-1"},{"RegNum":{"tml_elements":["nOrgNum"],"nOrgNum":7},"nStoichiometricCoef":"1","nSampleNm":1,"tml_elements":["RegNum","nSampleNm","nStoichiometricCoef","ePhase"],"ePhase":"Crystal"},{"ePhase":"Ideal gas","tml_elements":["RegNum","nStoichiometricCoef","ePhase"],"nStoichiometricCoef":"-5","RegNum":{"nOrgNum":4,"tml_elements":["nOrgNum"]}},{"nStoichiometricCoef":"-3","RegNum":{"tml_elements":["nOrgNum"],"nOrgNum":5},"ePhase":"Ideal gas","tml_elements":["RegNum","nStoichiometricCoef","ePhase"]}],"tml_elements":["nReactionDataNumber","Participant","eExpPurpose","sCompiler","sContributor","dateDateAdded","eReactionType","Property","NumValues"],"eReactionType":"Formation of a compound from elements in their stable state","dateDateAdded":"6/3/2013","sCompiler":"VVD","NumValues":[{"PropertyValue":[{"tml_elements":["nPropNumber","nPropValue","nPropDigits","CombinedUncertainty"],"nPropNumber":1,"nPropDigits":6,"nPropValue":-1668.76,"CombinedUncertainty":{"nCombExpandUncertValue":3.62,"tml_elements":["nCombUncertAssessNum","nCombExpandUncertValue"],"nCombUncertAssessNum":1}}],"tml_elements":["PropertyValue"],"VariableValue":[]}],"eExpPurpose":"Principal objective of the work","Property":[{"CombinedUncertainty":{"nCombUncertAssessNum":1,"sCombUncertEvaluator":"Data file compiler","tml_elements":["nCombUncertAssessNum","sCombUncertEvaluator","eCombUncertEvalMethod","nCombUncertLevOfConfid"],"eCombUncertEvalMethod":"Propagation of evaluated standard uncertainties","nCombUncertLevOfConfid":95},"nTemperature-K":"298.15","nPressure-kPa":"101.3","nPressureDigits":4,"Property-MethodID":{"PropertyGroup":{"ReactionStateChangeProp":{"eMethodName":"Solution calorimetry","ePropName":"Molar enthalpy of reaction, kJ/mol","tml_elements":["ePropName","eMethodName"]},"tml_elements":["ReactionStateChangeProp"]},"tml_elements":["PropertyGroup"]},"nPropNumber":1,"nTemperatureDigits":5,"tml_elements":["nPropNumber","Property-MethodID","nTemperature-K","nTemperatureDigits","nPressure-kPa","nPressureDigits","CombinedUncertainty"]}]},{"Property":[{"nPropNumber":1,"tml_elements":["nPropNumber","Property-MethodID","nTemperature-K","nTemperatureDigits","nPressure-kPa","nPressureDigits","CombinedUncertainty"],"Property-MethodID":{"PropertyGroup":{"tml_elements":["ReactionStateChangeProp"],"ReactionStateChangeProp":{"tml_elements":["ePropName","eMethodName"],"ePropName":"Molar enthalpy of reaction, kJ/mol","eMethodName":"Solution calorimetry"}},"tml_elements":["PropertyGroup"]},"nTemperatureDigits":3,"CombinedUncertainty":{"sCombUncertEvaluator":"Data file compiler","nCombUncertAssessNum":1,"nCombUncertLevOfConfid":95,"eCombUncertEvalMethod":"Propagation of evaluated standard uncertainties","tml_elements":["nCombUncertAssessNum","sCombUncertEvaluator","eCombUncertEvalMethod","nCombUncertLevOfConfid"]},"nTemperature-K":"298","nPressureDigits":4,"nPressure-kPa":"101.3"}],"eExpPurpose":"Principal objective of the work","dateDateAdded":"6/3/2013","sCompiler":"VVD","NumValues":[{"tml_elements":["PropertyValue"],"PropertyValue":[{"nPropValue":-1669.18,"CombinedUncertainty":{"tml_elements":["nCombUncertAssessNum","nCombExpandUncertValue"],"nCombExpandUncertValue":2.42,"nCombUncertAssessNum":1},"nPropDigits":6,"nPropNumber":1,"tml_elements":["nPropNumber","nPropValue","nPropDigits","CombinedUncertainty"]}],"VariableValue":[]}],"tml_elements":["nReactionDataNumber","Participant","eExpPurpose","sCompiler","sContributor","dateDateAdded","eReactionType","Property","NumValues"],"Participant":[{"nStoichiometricCoef":"-4","RegNum":{"tml_elements":["nOrgNum"],"nOrgNum":2},"tml_elements":["RegNum","nStoichiometricCoef","ePhase"],"ePhase":"Crystal"},{"tml_elements":["RegNum","nStoichiometricCoef","ePhase"],"ePhase":"Crystal","RegNum":{"tml_elements":["nOrgNum"],"nOrgNum":3},"nStoichiometricCoef":"-1"},{"ePhase":"Crystal","tml_elements":["RegNum","nSampleNm","nStoichiometricCoef","ePhase"],"RegNum":{"nOrgNum":7,"tml_elements":["nOrgNum"]},"nSampleNm":1,"nStoichiometricCoef":"1"},{"ePhase":"Ideal gas","tml_elements":["RegNum","nStoichiometricCoef","ePhase"],"RegNum":{"nOrgNum":4,"tml_elements":["nOrgNum"]},"nStoichiometricCoef":"-5"},{"ePhase":"Ideal gas","tml_elements":["RegNum","nStoichiometricCoef","ePhase"],"RegNum":{"nOrgNum":5,"tml_elements":["nOrgNum"]},"nStoichiometricCoef":"-3"}],"eReactionType":"Formation of a compound from elements in their stable state","nReactionDataNumber":4,"sContributor":"XXX"}],"tml_elements":["Version","Citation","Compound","PureOrMixtureData","ReactionData"],"Version":{"tml_elements":["nVersionMajor","nVersionMinor"],"nVersionMajor":2,"nVersionMinor":0}}