{"tml_elements":["Version","Citation","Compound","PureOrMixtureData","ReactionData"],"ReactionData":[{"sCompiler":"PAA","dateDateAdded":"3/11/2011","NumValues":[{"PropertyValue":[{"CombinedUncertainty":{"tml_elements":["nCombUncertAssessNum","nCombExpandUncertValue"],"nCombExpandUncertValue":9,"nCombUncertAssessNum":1},"nPropValue":-33221.1,"tml_elements":["nPropNumber","nPropValue","nPropDigits","CombinedUncertainty"],"nPropDigits":6,"nPropNumber":1}],"tml_elements":["PropertyValue"],"VariableValue":[]}],"eExpPurpose":"Principal objective of the work","Property":[{"nPropNumber":1,"tml_elements":["nPropNumber","Property-MethodID","nTemperature-K","nTemperatureDigits","nPressure-kPa","nPressureDigits","CombinedUncertainty"],"Property-MethodID":{"PropertyGroup":{"tml_elements":["ReactionStateChangeProp"],"ReactionStateChangeProp":{"ePropName":"Specific internal energy of reaction at constant volume, J/g","sMethodName":"Isoperibol bomb calorimeter","tml_elements":["ePropName","sMethodName"]}},"tml_elements":["PropertyGroup"]},"nTemperatureDigits":5,"nTemperature-K":"298.15","CombinedUncertainty":{"sCombUncertEvaluator":"Data file compiler","nCombUncertAssessNum":1,"eCombUncertEvalMethod":"Propagation of evaluated standard uncertainties","nCombUncertLevOfConfid":95,"tml_elements":["nCombUncertAssessNum","sCombUncertEvaluator","eCombUncertEvalMethod","nCombUncertLevOfConfid"]},"nPressure-kPa":"101.325","nPressureDigits":6}],"nReactionDataNumber":1,"sContributor":"XXX","eReactionType":"Combustion with oxygen","Participant":[{"ePhase":"Liquid","tml_elements":["RegNum","nSampleNm","nStoichiometricCoef","ePhase"],"nSampleNm":1,"nStoichiometricCoef":"-1","RegNum":{"nOrgNum":5,"tml_elements":["nOrgNum"]}},{"nStoichiometricCoef":"12","RegNum":{"tml_elements":["nOrgNum"],"nOrgNum":1},"ePhase":"Ideal gas","tml_elements":["RegNum","nStoichiometricCoef","ePhase"]},{"nStoichiometricCoef":"2","RegNum":{"nOrgNum":2,"tml_elements":["nOrgNum"]},"ePhase":"Ideal gas","tml_elements":["RegNum","nStoichiometricCoef","ePhase"]},{"tml_elements":["RegNum","nStoichiometricCoef","ePhase"],"ePhase":"Liquid","nStoichiometricCoef":"8","RegNum":{"tml_elements":["nOrgNum"],"nOrgNum":3}},{"tml_elements":["RegNum","nStoichiometricCoef","ePhase"],"ePhase":"Ideal gas","RegNum":{"tml_elements":["nOrgNum"],"nOrgNum":4},"nStoichiometricCoef":"-16"}],"tml_elements":["nReactionDataNumber","Participant","eExpPurpose","sCompiler","sContributor","dateDateAdded","eReactionType","Property","NumValues"]}],"PureOrMixtureData":[{"Component":[{"RegNum":{"tml_elements":["nOrgNum"],"nOrgNum":5},"nSampleNm":1,"tml_elements":["RegNum","nSampleNm"]}],"Variable":[{"VarPhaseID":{"tml_elements":["eVarPhase"],"eVarPhase":"Liquid"},"nVarNumber":1,"tml_elements":["nVarNumber","VariableID","VarPhaseID"],"VariableID":{"VariableType":{"eTemperature":"Temperature, K","tml_elements":["eTemperature"]},"tml_elements":["VariableType"]}},{"tml_elements":["nVarNumber","VariableID","VarPhaseID"],"VarPhaseID":{"tml_elements":["eVarPhase"],"eVarPhase":"Liquid"},"nVarNumber":2,"VariableID":{"tml_elements":["VariableType"],"VariableType":{"ePressure":"Pressure, kPa","tml_elements":["ePressure"]}}}],"Property":[{"PropPhaseID":{"tml_elements":["ePropPhase"],"ePropPhase":"Liquid"},"Property-MethodID":{"tml_elements":["PropertyGroup"],"PropertyGroup":{"HeatCapacityAndDerivedProp":{"ePropName":"Molar heat capacity at constant pressure, J/K/mol","eMethodName":"Small sample (50 mg) DSC","tml_elements":["ePropName","eMethodName"]},"tml_elements":["HeatCapacityAndDerivedProp"]}},"nPropNumber":1,"ePresentation":"Direct value, X","tml_elements":["nPropNumber","Property-MethodID","PropPhaseID","ePresentation","CombinedUncertainty"],"CombinedUncertainty":{"sCombUncertEvaluator":"Data file compiler","nCombUncertAssessNum":1,"eCombUncertEvalMethod":"Propagation of evaluated standard uncertainties","nCombUncertLevOfConfid":95,"tml_elements":["nCombUncertAssessNum","sCombUncertEvaluator","eCombUncertEvalMethod","nCombUncertLevOfConfid"]}}],"eExpPurpose":"Principal objective of the work","NumValues":[{"VariableValue":[{"nVarDigits":5,"tml_elements":["nVarNumber","nVarValue","nVarDigits"],"nVarNumber":1,"nVarValue":298.15},{"nVarNumber":2,"nVarDigits":6,"tml_elements":["nVarNumber","nVarValue","nVarDigits"],"nVarValue":101.325}],"PropertyValue":[{"tml_elements":["nPropNumber","nPropValue","nPropDigits","CombinedUncertainty"],"nPropDigits":4,"nPropNumber":1,"nPropValue":367.68008,"CombinedUncertainty":{"nCombUncertAssessNum":1,"tml_elements":["nCombUncertAssessNum","nCombExpandUncertValue"],"nCombExpandUncertValue":21.60661176}}],"tml_elements":["VariableValue","PropertyValue"]}],"dateDateAdded":"3/11/2011","nPureOrMixtureDataNumber":1,"sCompiler":"VVD","tml_elements":["nPureOrMixtureDataNumber","Component","eExpPurpose","sCompiler","sContributor","dateDateAdded","Property","PhaseID","Variable","NumValues"],"PhaseID":[{"ePhase":"Liquid","tml_elements":["ePhase"]}],"sContributor":"JCE"},{"NumValues":[{"PropertyValue":[{"tml_elements":["nPropNumber","nPropValue","nPropDigits","CombinedUncertainty"],"nPropDigits":4,"nPropNumber":1,"nPropValue":1056,"CombinedUncertainty":{"nCombExpandUncertValue":2,"tml_elements":["nCombUncertAssessNum","nCombExpandUncertValue"],"nCombUncertAssessNum":1}}],"tml_elements":["VariableValue","PropertyValue"],"VariableValue":[{"nVarDigits":5,"tml_elements":["nVarNumber","nVarValue","nVarDigits"],"nVarNumber":1,"nVarValue":298.15},{"tml_elements":["nVarNumber","nVarValue","nVarDigits"],"nVarDigits":6,"nVarNumber":2,"nVarValue":101.325}]}],"dateDateAdded":"3/11/2011","nPureOrMixtureDataNumber":2,"sCompiler":"VVD","Property":[{"CombinedUncertainty":{"sCombUncertEvaluator":"Data file compiler","nCombUncertAssessNum":1,"nCombUncertLevOfConfid":95,"eCombUncertEvalMethod":"Propagation of evaluated standard uncertainties","tml_elements":["nCombUncertAssessNum","sCombUncertEvaluator","eCombUncertEvalMethod","nCombUncertLevOfConfid"]},"ePresentation":"Direct value, X","tml_elements":["nPropNumber","Property-MethodID","PropPhaseID","ePresentation","CombinedUncertainty"],"PropPhaseID":{"tml_elements":["ePropPhase"],"ePropPhase":"Liquid"},"Property-MethodID":{"PropertyGroup":{"VolumetricProp":{"tml_elements":["ePropName","eMethodName"],"eMethodName":"Pycnometric method","ePropName":"Mass density, kg/m3"},"tml_elements":["VolumetricProp"]},"tml_elements":["PropertyGroup"]},"nPropNumber":1}],"eExpPurpose":"Principal objective of the work","sContributor":"TRC","Variable":[{"VarPhaseID":{"tml_elements":["eVarPhase"],"eVarPhase":"Liquid"},"nVarNumber":1,"tml_elements":["nVarNumber","VariableID","VarPhaseID"],"VariableID":{"tml_elements":["VariableType"],"VariableType":{"tml_elements":["eTemperature"],"eTemperature":"Temperature, K"}}},{"nVarNumber":2,"VarPhaseID":{"tml_elements":["eVarPhase"],"eVarPhase":"Liquid"},"tml_elements":["nVarNumber","VariableID","VarPhaseID"],"VariableID":{"tml_elements":["VariableType"],"VariableType":{"ePressure":"Pressure, kPa","tml_elements":["ePressure"]}}}],"Component":[{"tml_elements":["RegNum","nSampleNm"],"nSampleNm":1,"RegNum":{"tml_elements":["nOrgNum"],"nOrgNum":5}}],"tml_elements":["nPureOrMixtureDataNumber","Component","eExpPurpose","sCompiler","sContributor","dateDateAdded","Property","PhaseID","Variable","NumValues"],"PhaseID":[{"ePhase":"Liquid","tml_elements":["ePhase"]}]}],"THERMOML_MD5_CHECKSUM":"76e5b282bbea97bc6bc9d4bf91c13026","Citation":{"eType":"journal","sVol":"514","sPage":"28-31","yrPubYr":"2011","sPubName":"Thermochim. Acta","dateCit":"2020-09-29","sIDNum":"1-2","tml_elements":["TRCRefID","eType","eSourceType","sAuthor","sPubName","yrPubYr","dateCit","sTitle","sAbstract","sKeyword","sDOI","sIDNum","sVol","sPage"],"sAuthor":["Emel'yanenko, V. N.[Vladimir N.]","Verevkin, S. P.[Sergey P.]","Heintz, A.[Andreas]"],"sKeyword":["ionic liquids","combustion calorimetry","enthalpy of formation","enthalpy of","vaporization","first-principles calculations."],"sAbstract":"The standard molar enthalpy of formation  a  ' f m H (l) of the ionic liquid n-butyl-3-  methylpyridinium dicyanamide has been determined at 298.15 K by means of combustion  calorimetry. Vaporization of the ionic liquid into the nitrogen stream in order to obtain  vaporization enthalpy has been attempted, but no vaporization was achieved. First-principles  calculations of the enthalpy of formation in the gaseous phase have been performed for the ionic  species using the G3MP2 theory. The combination of traditional combustion calorimetry with  modern high-level quantum-chemical calculations allows estimation of the molar enthalpy of  vaporization of the ionic liquid under study.","TRCRefID":{"tml_elements":["yrYrPub","sAuthor1","sAuthor2","nAuthorn"],"nAuthorn":"0","sAuthor1":"eme","sAuthor2":"ver","yrYrPub":"2011"},"sDOI":"10.1016/j.tca.2010.11.028","sTitle":"Pyridinium Based Ionic Liquids. n-Butyl-3-Methyl-Pyridinium  Dicyanoamide: Thermochemical Measurement and First-Principles  Calculations","eSourceType":"Original"},"Compound":[{"sCommonName":["carbon dioxide"],"tml_elements":["RegNum","sStandardInChI","sStandardInChIKey","sCommonName","sFormulaMolec"],"sFormulaMolec":"CO2","sStandardInChIKey":"CURLTUGMZLYLDI-UHFFFAOYSA-N","RegNum":{"tml_elements":["nOrgNum"],"nOrgNum":1},"sStandardInChI":"InChI=1S/CO2/c2-1-3"},{"sStandardInChI":"InChI=1S/N2/c1-2","RegNum":{"nOrgNum":2,"tml_elements":["nOrgNum"]},"tml_elements":["RegNum","sStandardInChI","sStandardInChIKey","sCommonName","sFormulaMolec"],"sCommonName":["nitrogen"],"sFormulaMolec":"N2","sStandardInChIKey":"IJGRMHOSHXDMSA-UHFFFAOYSA-N"},{"sStandardInChI":"InChI=1S/H2O/h1H2","RegNum":{"nOrgNum":3,"tml_elements":["nOrgNum"]},"sStandardInChIKey":"XLYOFNOQVPJJNP-UHFFFAOYSA-N","sFormulaMolec":"H2O","sCommonName":["water"],"tml_elements":["RegNum","sStandardInChI","sStandardInChIKey","sCommonName","sFormulaMolec"]},{"sFormulaMolec":"O2","tml_elements":["RegNum","sStandardInChI","sStandardInChIKey","sCommonName","sFormulaMolec"],"sCommonName":["oxygen"],"sStandardInChI":"InChI=1S/O2/c1-2","RegNum":{"tml_elements":["nOrgNum"],"nOrgNum":4},"sStandardInChIKey":"MYMOFIZGZYHOMD-UHFFFAOYSA-N"},{"sStandardInChIKey":"FYBPOFIFDAOGDM-UHFFFAOYSA-N","RegNum":{"tml_elements":["nOrgNum"],"nOrgNum":5},"sStandardInChI":"InChI=1S/C10H16N.C2N3/c1-3-4-7-11-8-5-6-10(2)9-11;3-1-5-2-4/h5-6,8-9H,3-4,7H2,1-2H3;/q+1;-1","sFormulaMolec":"C12H16N4","tml_elements":["RegNum","sStandardInChI","sStandardInChIKey","sCommonName","sFormulaMolec","Sample"],"Sample":[{"purity":[{"nPurityMass":98,"eAnalMeth":["HPLC"],"tml_elements":["nStep","nPurityMass","nPurityMassDigits","eAnalMeth"],"nPurityMassDigits":2,"nStep":1},{"tml_elements":["nStep","ePurifMethod"],"nStep":2,"ePurifMethod":["Dried by vacuum heating"]},{"tml_elements":["nStep","nWaterMassPerCent","nWaterMassPerCentDigits","eAnalMeth"],"nStep":3,"nWaterMassPerCentDigits":4,"eAnalMeth":["Karl Fischer titration"],"nWaterMassPerCent":0.06445}],"tml_elements":["nSampleNm","eSource","purity"],"eSource":"Commercial source","nSampleNm":1}],"sCommonName":["1-butyl-3-methylpyridinium dicyanamide","N-butyl-3-methylpyridinium dicyanamide"]}],"Version":{"tml_elements":["nVersionMajor","nVersionMinor"],"nVersionMinor":0,"nVersionMajor":2}}