{"tml_elements":["Version","Citation","Compound","PureOrMixtureData"],"PureOrMixtureData":[{"sContributor":"TRC","tml_elements":["nPureOrMixtureDataNumber","Component","eExpPurpose","sCompiler","sContributor","dateDateAdded","Property","PhaseID","Variable","NumValues"],"PhaseID":[{"tml_elements":["ePhase"],"ePhase":"Crystal"},{"ePhase":"Gas","tml_elements":["ePhase"]}],"Variable":[{"tml_elements":["nVarNumber","VariableID","VarPhaseID"],"VarPhaseID":{"tml_elements":["eVarPhase"],"eVarPhase":"Crystal"},"nVarNumber":1,"VariableID":{"VariableType":{"eTemperature":"Temperature, K","tml_elements":["eTemperature"]},"tml_elements":["VariableType"]}}],"Component":[{"tml_elements":["RegNum","nSampleNm"],"RegNum":{"nOrgNum":1,"tml_elements":["nOrgNum"]},"nSampleNm":1}],"NumValues":[{"VariableValue":[{"nVarValue":570,"nVarDigits":2,"tml_elements":["nVarNumber","nVarValue","nVarDigits"],"nVarNumber":1}],"tml_elements":["VariableValue","PropertyValue"],"PropertyValue":[{"nPropDigits":4,"nPropNumber":1,"tml_elements":["nPropNumber","nPropValue","nPropDigits","CombinedUncertainty"],"nPropValue":0.004417,"CombinedUncertainty":{"nCombExpandUncertValue":0.000442,"tml_elements":["nCombUncertAssessNum","nCombExpandUncertValue"],"nCombUncertAssessNum":1}}]},{"VariableValue":[{"nVarNumber":1,"nVarDigits":2,"tml_elements":["nVarNumber","nVarValue","nVarDigits"],"nVarValue":580}],"PropertyValue":[{"nPropValue":0.007462,"CombinedUncertainty":{"nCombUncertAssessNum":1,"nCombExpandUncertValue":0.000746,"tml_elements":["nCombUncertAssessNum","nCombExpandUncertValue"]},"tml_elements":["nPropNumber","nPropValue","nPropDigits","CombinedUncertainty"],"nPropNumber":1,"nPropDigits":4}],"tml_elements":["VariableValue","PropertyValue"]},{"tml_elements":["VariableValue","PropertyValue"],"PropertyValue":[{"tml_elements":["nPropNumber","nPropValue","nPropDigits","CombinedUncertainty"],"nPropNumber":1,"nPropDigits":4,"nPropValue":0.01238,"CombinedUncertainty":{"nCombUncertAssessNum":1,"tml_elements":["nCombUncertAssessNum","nCombExpandUncertValue"],"nCombExpandUncertValue":0.00124}}],"VariableValue":[{"nVarValue":590,"tml_elements":["nVarNumber","nVarValue","nVarDigits"],"nVarDigits":2,"nVarNumber":1}]},{"VariableValue":[{"nVarNumber":1,"nVarDigits":1,"tml_elements":["nVarNumber","nVarValue","nVarDigits"],"nVarValue":600}],"PropertyValue":[{"nPropDigits":4,"nPropNumber":1,"tml_elements":["nPropNumber","nPropValue","nPropDigits","CombinedUncertainty"],"CombinedUncertainty":{"nCombUncertAssessNum":1,"nCombExpandUncertValue":0.00202,"tml_elements":["nCombUncertAssessNum","nCombExpandUncertValue"]},"nPropValue":0.02021}],"tml_elements":["VariableValue","PropertyValue"]},{"VariableValue":[{"nVarValue":610,"nVarNumber":1,"nVarDigits":2,"tml_elements":["nVarNumber","nVarValue","nVarDigits"]}],"tml_elements":["VariableValue","PropertyValue"],"PropertyValue":[{"tml_elements":["nPropNumber","nPropValue","nPropDigits","CombinedUncertainty"],"nPropDigits":4,"nPropNumber":1,"CombinedUncertainty":{"nCombExpandUncertValue":0.00325,"tml_elements":["nCombUncertAssessNum","nCombExpandUncertValue"],"nCombUncertAssessNum":1},"nPropValue":0.03245}]},{"tml_elements":["VariableValue","PropertyValue"],"PropertyValue":[{"nPropNumber":1,"nPropDigits":4,"tml_elements":["nPropNumber","nPropValue","nPropDigits","CombinedUncertainty"],"CombinedUncertainty":{"nCombUncertAssessNum":1,"nCombExpandUncertValue":0.00513,"tml_elements":["nCombUncertAssessNum","nCombExpandUncertValue"]},"nPropValue":0.05132}],"VariableValue":[{"nVarValue":620,"nVarNumber":1,"nVarDigits":2,"tml_elements":["nVarNumber","nVarValue","nVarDigits"]}]},{"PropertyValue":[{"tml_elements":["nPropNumber","nPropValue","nPropDigits","CombinedUncertainty"],"nPropDigits":4,"nPropNumber":1,"nPropValue":0.07998,"CombinedUncertainty":{"nCombExpandUncertValue":0.008,"tml_elements":["nCombUncertAssessNum","nCombExpandUncertValue"],"nCombUncertAssessNum":1}}],"tml_elements":["VariableValue","PropertyValue"],"VariableValue":[{"nVarValue":630,"nVarNumber":1,"tml_elements":["nVarNumber","nVarValue","nVarDigits"],"nVarDigits":2}]},{"VariableValue":[{"nVarNumber":1,"nVarDigits":2,"tml_elements":["nVarNumber","nVarValue","nVarDigits"],"nVarValue":640}],"tml_elements":["VariableValue","PropertyValue"],"PropertyValue":[{"tml_elements":["nPropNumber","nPropValue","nPropDigits","CombinedUncertainty"],"nPropDigits":4,"nPropNumber":1,"nPropValue":0.1229,"CombinedUncertainty":{"tml_elements":["nCombUncertAssessNum","nCombExpandUncertValue"],"nCombExpandUncertValue":0.0123,"nCombUncertAssessNum":1}}]}],"dateDateAdded":"2/2/2016","nPureOrMixtureDataNumber":1,"sCompiler":"AB","eExpPurpose":"Principal objective of the work","Property":[{"CombinedUncertainty":{"eCombUncertEvalMethod":"Propagation of evaluated standard uncertainties","nCombUncertLevOfConfid":95,"tml_elements":["nCombUncertAssessNum","sCombUncertEvaluator","eCombUncertEvalMethod","nCombUncertLevOfConfid"],"sCombUncertEvaluator":"Data file compiler","nCombUncertAssessNum":1},"ePresentation":"Direct value, X","tml_elements":["nPropNumber","Property-MethodID","PropPhaseID","ePresentation","CombinedUncertainty"],"PropPhaseID":{"tml_elements":["ePropPhase"],"ePropPhase":"Crystal"},"Property-MethodID":{"PropertyGroup":{"VaporPBoilingTAzeotropTandP":{"eMethodName":"Rate of evaporation","ePropName":"Vapor or sublimation pressure, kPa","tml_elements":["ePropName","eMethodName"]},"tml_elements":["VaporPBoilingTAzeotropTandP"]},"tml_elements":["PropertyGroup"]},"nPropNumber":1}]},{"sContributor":"TRC","PhaseID":[{"ePhase":"Crystal 2","tml_elements":["ePhase"]},{"tml_elements":["ePhase"],"ePhase":"Crystal 1"},{"tml_elements":["ePhase"],"ePhase":"Gas"}],"tml_elements":["nPureOrMixtureDataNumber","Component","eExpPurpose","sCompiler","sContributor","dateDateAdded","Property","PhaseID","NumValues"],"Component":[{"RegNum":{"tml_elements":["nOrgNum"],"nOrgNum":2},"nSampleNm":1,"tml_elements":["RegNum","nSampleNm"]}],"sCompiler":"AB","dateDateAdded":"2/2/2016","nPureOrMixtureDataNumber":2,"NumValues":[{"PropertyValue":[{"CombinedUncertainty":{"tml_elements":["nCombUncertAssessNum","nCombExpandUncertValue"],"nCombExpandUncertValue":6,"nCombUncertAssessNum":1},"nPropValue":688,"nPropDigits":3,"nPropNumber":1,"tml_elements":["nPropNumber","nPropValue","nPropDigits","CombinedUncertainty"]}],"tml_elements":["PropertyValue"],"VariableValue":[]}],"eExpPurpose":"Principal objective of the work","Property":[{"Property-MethodID":{"PropertyGroup":{"PhaseTransition":{"ePropName":"Triple point temperature, K","sMethodName":"From the change of vapor pressure slope","tml_elements":["ePropName","sMethodName"]},"tml_elements":["PhaseTransition"]},"tml_elements":["PropertyGroup"]},"CombinedUncertainty":{"tml_elements":["nCombUncertAssessNum","sCombUncertEvaluator","eCombUncertEvalMethod","nCombUncertLevOfConfid"],"eCombUncertEvalMethod":"Propagation of evaluated standard uncertainties","nCombUncertLevOfConfid":95,"nCombUncertAssessNum":1,"sCombUncertEvaluator":"Data file compiler"},"tml_elements":["nPropNumber","Property-MethodID","PropPhaseID","ePresentation","CombinedUncertainty"],"ePresentation":"Direct value, X","nPropNumber":1,"PropPhaseID":{"ePropPhase":"Crystal 2","tml_elements":["ePropPhase"]}}]},{"sContributor":"TRC","PhaseID":[{"tml_elements":["ePhase"],"ePhase":"Crystal 1"},{"ePhase":"Liquid","tml_elements":["ePhase"]},{"ePhase":"Gas","tml_elements":["ePhase"]}],"tml_elements":["nPureOrMixtureDataNumber","Component","eExpPurpose","sCompiler","sContributor","dateDateAdded","Property","PhaseID","NumValues"],"Component":[{"tml_elements":["RegNum","nSampleNm"],"nSampleNm":1,"RegNum":{"nOrgNum":2,"tml_elements":["nOrgNum"]}}],"sCompiler":"AB","dateDateAdded":"2/2/2016","nPureOrMixtureDataNumber":3,"NumValues":[{"VariableValue":[],"PropertyValue":[{"nPropDigits":3,"nPropNumber":1,"tml_elements":["nPropNumber","nPropValue","nPropDigits","CombinedUncertainty"],"CombinedUncertainty":{"nCombUncertAssessNum":1,"tml_elements":["nCombUncertAssessNum","nCombExpandUncertValue"],"nCombExpandUncertValue":6},"nPropValue":701}],"tml_elements":["PropertyValue"]}],"Property":[{"CombinedUncertainty":{"nCombUncertAssessNum":1,"sCombUncertEvaluator":"Data file compiler","tml_elements":["nCombUncertAssessNum","sCombUncertEvaluator","eCombUncertEvalMethod","nCombUncertLevOfConfid"],"nCombUncertLevOfConfid":95,"eCombUncertEvalMethod":"Propagation of evaluated standard uncertainties"},"PropPhaseID":{"ePropPhase":"Crystal 1","tml_elements":["ePropPhase"]},"Property-MethodID":{"PropertyGroup":{"tml_elements":["PhaseTransition"],"PhaseTransition":{"tml_elements":["ePropName","sMethodName"],"ePropName":"Triple point temperature, K","sMethodName":"From the change of vapor pressure slope"}},"tml_elements":["PropertyGroup"]},"nPropNumber":1,"ePresentation":"Direct value, X","tml_elements":["nPropNumber","Property-MethodID","PropPhaseID","ePresentation","CombinedUncertainty"]}],"eExpPurpose":"Principal objective of the work"}],"THERMOML_MD5_CHECKSUM":"125c94bec837d16870889e31cbc0571d","Compound":[{"sFormulaMolec":"Cl3In","Sample":[{"nSampleNm":1,"eSource":"Commercial source","tml_elements":["nSampleNm","eSource","purity"],"purity":[{"nUnknownPerCent":99.999,"nUnknownPerCentDigits":5,"tml_elements":["nStep","nUnknownPerCent","nUnknownPerCentDigits","eAnalMeth"],"nStep":1,"eAnalMeth":["Stated by supplier"]},{"ePurifMethod":["Dried in a desiccator"],"nStep":2,"tml_elements":["nStep","ePurifMethod"]}]}],"tml_elements":["RegNum","sStandardInChI","sStandardInChIKey","sCommonName","sFormulaMolec","Sample"],"sCommonName":["indium chloride","indium trichloride","indium(III) chloride"],"RegNum":{"nOrgNum":1,"tml_elements":["nOrgNum"]},"sStandardInChI":"InChI=1S/3ClH.In/h3*1H;/q;;;+3/p-3","sStandardInChIKey":"PSCMQHVBLHHWTO-UHFFFAOYSA-K"},{"sStandardInChIKey":"OXBLHERUFWYNTN-UHFFFAOYSA-M","RegNum":{"nOrgNum":2,"tml_elements":["nOrgNum"]},"sStandardInChI":"InChI=1S/ClH.Cu/h1H;/q;+1/p-1","Sample":[{"nSampleNm":1,"eSource":"Commercial source","purity":[{"eAnalMeth":["Stated by supplier"],"nStep":1,"tml_elements":["nStep","nUnknownPerCent","nUnknownPerCentDigits","eAnalMeth"],"nUnknownPerCentDigits":5,"nUnknownPerCent":99.999},{"tml_elements":["nStep","ePurifMethod"],"nStep":2,"ePurifMethod":["Dried in a desiccator"]}],"tml_elements":["nSampleNm","eSource","purity"]}],"sCommonName":["copper monochloride","copper(1+) chloride","cuprous chloride"],"tml_elements":["RegNum","sStandardInChI","sStandardInChIKey","sCommonName","sFormulaMolec","Sample"],"sFormulaMolec":"ClCu"}],"Citation":{"eSourceType":"Original","tml_elements":["TRCRefID","eType","eSourceType","sAuthor","sPubName","yrPubYr","dateCit","sTitle","sAbstract","sKeyword","sDOI","sVol","sPage"],"sKeyword":["Thermogravimetric analysis","Vapor pressure","Metal chloride","InCl3","CuCl","InCl3 oxidation"],"sAuthor":["Karakaya, C.[Canan]","Ricote, S.[Sandrine]","Albin, D.[David]","Sanchez-Cortezon, E.[Emilio]","Linares-Zea, B.[Belen]","Kee, R. J.[Robert J.]"],"TRCRefID":{"yrYrPub":"2015","sAuthor2":"ric","sAuthor1":"kar","tml_elements":["yrYrPub","sAuthor1","sAuthor2","nAuthorn"],"nAuthorn":"0"},"sAbstract":"This paper presents a thermogravimetric approach to evaluate the vapor pressure of low-volatility inorganic compounds such as CuCl and InCl3 under atmospheric conditions.The thermogravimetric analysis (TGA) approach is inherently more straightforward than alternatives such as torsion studies and mass spectrometry. Vapor pressures are evaluated using the Clausius-Clapeyron relationship between the vapor pressure and sublimation (or vaporization) enthalpy at a given temperature. Despite the relative simplicity of TGA, the highly hygroscopic nature of InCl3 demands some caution in the data analysis. Especially at high temperature, a solid-phase oxidation product In2O3 remains as a residual mass.Water is found to be the oxidation agent, with the residual proceeding through a solid-phase InOCl intermediate. However in the relatively low temperature range of interest oxidation is found to be negligible, with the gas-phase sublimation product being In2Cl6. This paper reports sublimation enthalpies and vapor pressures as functions of temperature in the range T greater than or equal to 570, less than or equal to 640K and atmospheric pressure.","sDOI":"10.1016/j.tca.2015.07.018","sTitle":"Thermogravimetric analysis of InCl3 sublimation at atmospheric pressure","dateCit":"2020-09-29","yrPubYr":"2015","sPubName":"Thermochim. Acta","eType":"journal","sVol":"622","sPage":"55-63"},"Version":{"tml_elements":["nVersionMajor","nVersionMinor"],"nVersionMinor":0,"nVersionMajor":2}}