{"Version":{"nVersionMinor":0,"nVersionMajor":2,"tml_elements":["nVersionMajor","nVersionMinor"]},"Citation":{"eSourceType":"Original","sTitle":"The standard enthalpy of formation of superionic solid electrolyte Li7La3Zr2O12","sDOI":"10.1016/j.tca.2017.09.019","sAbstract":"The standard enthalpy of formation of perspective solid electrolyte Li7La3Zr2O12 is determined using thermodynamic cycles based on the measurement of its enthalpy of dissolution. The standard molar enthalpies of dissolution in aqueous solution of 1 mol dm-3 HCl, formation from binary oxides and formation from elements for tetragonal form of Li7La3Zr2O12 are found to be -1547.6, -168.0 and -7152.6 kJ mol-1, respectively.","TRCRefID":{"sAuthor1":"ili","sAuthor2":"ras","tml_elements":["yrYrPub","sAuthor1","sAuthor2","nAuthorn"],"nAuthorn":"0","yrYrPub":"2017"},"sKeyword":["Li7La3Zr2O12","Solid electrolyte","Solution calorimetry","Enthalpies of dissolution","Enthalpies of formation"],"sAuthor":["Il'ina, E.A.","Raskovalov, A.A.","Safronov, A.P."],"tml_elements":["TRCRefID","eType","eSourceType","sAuthor","sPubName","yrPubYr","dateCit","sTitle","sAbstract","sKeyword","sDOI","sVol","sPage"],"dateCit":"2020-09-29","sPubName":"Thermochim. Acta","yrPubYr":"2017","sPage":"26-30","eType":"journal","sVol":"657"},"Compound":[{"sCommonName":["lanthanum"],"tml_elements":["RegNum","sStandardInChI","sStandardInChIKey","sCommonName","sFormulaMolec"],"sFormulaMolec":"La","sStandardInChIKey":"FZLIPJUXYLNCLC-UHFFFAOYSA-N","sStandardInChI":"InChI=1S/La","RegNum":{"nOrgNum":1,"tml_elements":["nOrgNum"]}},{"sFormulaMolec":"Li","sCommonName":["lithium"],"tml_elements":["RegNum","sStandardInChI","sStandardInChIKey","sCommonName","sFormulaMolec"],"sStandardInChIKey":"WHXSMMKQMYFTQS-UHFFFAOYSA-N","RegNum":{"nOrgNum":2,"tml_elements":["nOrgNum"]},"sStandardInChI":"InChI=1S/Li"},{"tml_elements":["RegNum","sStandardInChI","sStandardInChIKey","sCommonName","sFormulaMolec"],"sCommonName":["zirconium","zirconium element"],"sFormulaMolec":"Zr","sStandardInChIKey":"QCWXUUIWCKQGHC-UHFFFAOYSA-N","RegNum":{"nOrgNum":3,"tml_elements":["nOrgNum"]},"sStandardInChI":"InChI=1S/Zr"},{"sFormulaMolec":"O2","sCommonName":["oxygen"],"tml_elements":["RegNum","sStandardInChI","sStandardInChIKey","sCommonName","sFormulaMolec"],"RegNum":{"tml_elements":["nOrgNum"],"nOrgNum":4},"sStandardInChI":"InChI=1S/O2/c1-2","sStandardInChIKey":"MYMOFIZGZYHOMD-UHFFFAOYSA-N"},{"sStandardInChI":"InChI=1S/3La.7Li.12O.2Zr/q3*+3;7*+1;12*-2;2*+4","RegNum":{"tml_elements":["nOrgNum"],"nOrgNum":5},"sStandardInChIKey":"SHSHVJZBGYRKOB-UHFFFAOYSA-N","tml_elements":["RegNum","sStandardInChI","sStandardInChIKey","sCommonName","sFormulaMolec","Sample"],"Sample":[{"purity":[{"nStep":1,"tml_elements":["nStep","ePurifMethod"],"ePurifMethod":["Dried by oven heating"]},{"nPurityMass":98,"eAnalMeth":["Chemical analysis"],"nPurityMassDigits":2,"tml_elements":["nStep","nPurityMass","nPurityMassDigits","eAnalMeth"],"nStep":2}],"tml_elements":["nSampleNm","eSource","purity"],"eSource":"Synthesized by the authors","nSampleNm":1}],"sCommonName":["lanthanum lithium zirconium oxide (La3Li7Zr2O12)","trilanthanum(III) heptalithium dizirconium(IV) oxide"],"sFormulaMolec":"La3Li7O12Zr2"}],"THERMOML_MD5_CHECKSUM":"47a1cc400a490dc0b23d88b7be497e91","ReactionData":[{"tml_elements":["nReactionDataNumber","Participant","eExpPurpose","sCompiler","sContributor","dateDateAdded","eReactionType","Property","NumValues"],"Participant":[{"ePhase":"Crystal","tml_elements":["RegNum","nStoichiometricCoef","ePhase"],"RegNum":{"tml_elements":["nOrgNum"],"nOrgNum":1},"nStoichiometricCoef":"-3"},{"nStoichiometricCoef":"-7","RegNum":{"nOrgNum":2,"tml_elements":["nOrgNum"]},"tml_elements":["RegNum","nStoichiometricCoef","ePhase"],"ePhase":"Crystal"},{"nStoichiometricCoef":"-2","RegNum":{"tml_elements":["nOrgNum"],"nOrgNum":3},"ePhase":"Crystal","tml_elements":["RegNum","nStoichiometricCoef","ePhase"]},{"RegNum":{"tml_elements":["nOrgNum"],"nOrgNum":5},"nStoichiometricCoef":"1","nSampleNm":1,"tml_elements":["RegNum","nSampleNm","nStoichiometricCoef","ePhase"],"ePhase":"Crystal"},{"nStoichiometricCoef":"-6","RegNum":{"nOrgNum":4,"tml_elements":["nOrgNum"]},"tml_elements":["RegNum","nStoichiometricCoef","ePhase"],"ePhase":"Ideal gas"}],"eReactionType":"Formation of a compound from elements in their stable state","sContributor":"TRC","nReactionDataNumber":1,"eExpPurpose":"Principal objective of the work","Property":[{"nPressureDigits":3,"nPressure-kPa":"101","CombinedUncertainty":{"eCombUncertEvalMethod":"Propagation of evaluated standard uncertainties","nCombUncertLevOfConfid":95,"tml_elements":["nCombUncertAssessNum","sCombUncertEvaluator","eCombUncertEvalMethod","nCombUncertLevOfConfid"],"sCombUncertEvaluator":"Data file compiler","nCombUncertAssessNum":1},"nTemperature-K":"298","tml_elements":["nPropNumber","Property-MethodID","nTemperature-K","nTemperatureDigits","nPressure-kPa","nPressureDigits","CombinedUncertainty"],"nTemperatureDigits":3,"nPropNumber":1,"Property-MethodID":{"PropertyGroup":{"tml_elements":["ReactionStateChangeProp"],"ReactionStateChangeProp":{"eMethodName":"Solution calorimetry","ePropName":"Molar enthalpy of reaction, kJ/mol","tml_elements":["ePropName","eMethodName"]}},"tml_elements":["PropertyGroup"]}}],"NumValues":[{"PropertyValue":[{"tml_elements":["nPropNumber","nPropValue","nPropDigits","CombinedUncertainty"],"nPropNumber":1,"nPropDigits":5,"nPropValue":-7152.6,"CombinedUncertainty":{"nCombExpandUncertValue":66.4,"tml_elements":["nCombUncertAssessNum","nCombExpandUncertValue"],"nCombUncertAssessNum":1}}],"tml_elements":["PropertyValue"],"VariableValue":[]}],"dateDateAdded":"7/17/2019","sCompiler":"AB"}],"tml_elements":["Version","Citation","Compound","ReactionData"]}