{"ReactionData":[{"nReactionDataNumber":1,"sContributor":"VVD","eReactionType":null,"tml_elements":["nReactionDataNumber","Participant","eExpPurpose","sCompiler","sContributor","dateDateAdded","eReactionType","Property","NumValues"],"Participant":[{"tml_elements":["RegNum","nSampleNm","nStoichiometricCoef","ePhase"],"ePhase":"Crystal","RegNum":{"nOrgNum":4,"tml_elements":["nOrgNum"]},"nStoichiometricCoef":"1","nSampleNm":1},{"tml_elements":["RegNum","nStoichiometricCoef","ePhase"],"ePhase":"Crystal","RegNum":{"tml_elements":["nOrgNum"],"nOrgNum":1},"nStoichiometricCoef":"-2"},{"ePhase":"Crystal","tml_elements":["RegNum","nStoichiometricCoef","ePhase"],"nStoichiometricCoef":"-6","RegNum":{"tml_elements":["nOrgNum"],"nOrgNum":2}},{"ePhase":"Liquid","tml_elements":["RegNum","nStoichiometricCoef","ePhase"],"nStoichiometricCoef":"2","RegNum":{"nOrgNum":3,"tml_elements":["nOrgNum"]}}],"sCompiler":"TRC","dateDateAdded":"6/11/2009","NumValues":[{"PropertyValue":[{"tml_elements":["nPropNumber","nPropValue","nPropDigits","CombinedUncertainty"],"nPropNumber":1,"nPropDigits":4,"nPropValue":-44.36,"CombinedUncertainty":{"nCombExpandUncertValue":0.86,"tml_elements":["nCombUncertAssessNum","nCombExpandUncertValue"],"nCombUncertAssessNum":1}}],"tml_elements":["PropertyValue"],"VariableValue":[]}],"Property":[{"nTemperatureDigits":5,"tml_elements":["nPropNumber","Property-MethodID","nTemperature-K","nTemperatureDigits","nPressure-kPa","nPressureDigits","CombinedUncertainty"],"Property-MethodID":{"tml_elements":["PropertyGroup"],"PropertyGroup":{"ReactionStateChangeProp":{"tml_elements":["ePropName","sMethodName"],"sMethodName":"solution calorimetry","ePropName":"Molar enthalpy of reaction, kJ/mol"},"tml_elements":["ReactionStateChangeProp"]}},"nPropNumber":1,"nPressure-kPa":"101.325","nPressureDigits":6,"CombinedUncertainty":{"nCombUncertLevOfConfid":95,"eCombUncertEvalMethod":"Propagation of evaluated standard uncertainties","tml_elements":["nCombUncertAssessNum","sCombUncertEvaluator","eCombUncertEvalMethod","nCombUncertLevOfConfid"],"sCombUncertEvaluator":"Data file compiler","nCombUncertAssessNum":1},"nTemperature-K":"298.15"}],"eExpPurpose":"Principal objective of the work"},{"Property":[{"nPressure-kPa":"101.325","nPressureDigits":6,"CombinedUncertainty":{"tml_elements":["nCombUncertAssessNum","sCombUncertEvaluator","eCombUncertEvalMethod","nCombUncertLevOfConfid"],"nCombUncertLevOfConfid":95,"eCombUncertEvalMethod":"Propagation of evaluated standard uncertainties","nCombUncertAssessNum":1,"sCombUncertEvaluator":"Data file compiler"},"nTemperature-K":"298.15","nTemperatureDigits":5,"tml_elements":["nPropNumber","Property-MethodID","nTemperature-K","nTemperatureDigits","nPressure-kPa","nPressureDigits","CombinedUncertainty"],"Property-MethodID":{"tml_elements":["PropertyGroup"],"PropertyGroup":{"ReactionStateChangeProp":{"ePropName":"Molar enthalpy of reaction, kJ/mol","sMethodName":"solution calorimetry","tml_elements":["ePropName","sMethodName"]},"tml_elements":["ReactionStateChangeProp"]}},"nPropNumber":1}],"eExpPurpose":"Principal objective of the work","NumValues":[{"tml_elements":["PropertyValue"],"PropertyValue":[{"tml_elements":["nPropNumber","nPropValue","nPropDigits","CombinedUncertainty"],"nPropNumber":1,"nPropDigits":4,"nPropValue":-79.39,"CombinedUncertainty":{"tml_elements":["nCombUncertAssessNum","nCombExpandUncertValue"],"nCombExpandUncertValue":1.36,"nCombUncertAssessNum":1}}],"VariableValue":[]}],"dateDateAdded":"6/11/2009","sCompiler":"TRC","Participant":[{"tml_elements":["RegNum","nSampleNm","nStoichiometricCoef","ePhase"],"ePhase":"Crystal","nStoichiometricCoef":"1","nSampleNm":1,"RegNum":{"tml_elements":["nOrgNum"],"nOrgNum":5}},{"ePhase":"Crystal","tml_elements":["RegNum","nStoichiometricCoef","ePhase"],"RegNum":{"nOrgNum":1,"tml_elements":["nOrgNum"]},"nStoichiometricCoef":"-3"},{"tml_elements":["RegNum","nStoichiometricCoef","ePhase"],"ePhase":"Crystal","nStoichiometricCoef":"-10","RegNum":{"tml_elements":["nOrgNum"],"nOrgNum":2}},{"RegNum":{"nOrgNum":3,"tml_elements":["nOrgNum"]},"nStoichiometricCoef":"1","tml_elements":["RegNum","nStoichiometricCoef","ePhase"],"ePhase":"Liquid"}],"tml_elements":["nReactionDataNumber","Participant","eExpPurpose","sCompiler","sContributor","dateDateAdded","eReactionType","Property","NumValues"],"eReactionType":null,"sContributor":"VVD","nReactionDataNumber":2}],"tml_elements":["Version","Citation","Compound","ReactionData"],"Compound":[{"RegNum":{"tml_elements":["nOrgNum"],"nOrgNum":1},"sStandardInChI":"InChI=1S/O.Zn/q-2;+2","sStandardInChIKey":"RNWHGQJWIACOKP-UHFFFAOYSA-N","sFormulaMolec":"OZn","tml_elements":["RegNum","sStandardInChI","sStandardInChIKey","sCommonName","sFormulaMolec"],"sCommonName":["zinc(II) oxide","zinc oxide"]},{"RegNum":{"nOrgNum":2,"tml_elements":["nOrgNum"]},"sStandardInChI":"InChI=1S/BH3O3/c2-1(3)4/h2-4H","sStandardInChIKey":"KGBXLFKZBHKPEV-UHFFFAOYSA-N","sCommonName":["boric acid"],"tml_elements":["RegNum","sStandardInChI","sStandardInChIKey","sCommonName","sFormulaMolec"],"sFormulaMolec":"BH3O3"},{"sStandardInChIKey":"XLYOFNOQVPJJNP-UHFFFAOYSA-N","RegNum":{"nOrgNum":3,"tml_elements":["nOrgNum"]},"sStandardInChI":"InChI=1S/H2O/h1H2","tml_elements":["RegNum","sStandardInChI","sStandardInChIKey","sCommonName","sFormulaMolec"],"sCommonName":["water"],"sFormulaMolec":"H2O"},{"sFormulaMolec":"B6H14O18Zn2","Sample":[{"nSampleNm":1,"eSource":"Synthesized by the authors","purity":[{"nStep":1,"nPurityMolDigits":2,"nPurityMol":99,"tml_elements":["nStep","nPurityMol","nPurityMolDigits","eAnalMeth"],"eAnalMeth":["Chemical analysis"]}],"tml_elements":["nSampleNm","eSource","purity"]}],"sCommonName":["boron zinc oxide (B6Zn2O11), hydrate (1:7)"],"tml_elements":["RegNum","sStandardInChI","sStandardInChIKey","sCommonName","sFormulaMolec","Sample"],"sStandardInChI":"InChI=1S/6B.7H2O.11O.2Zn/h;;;;;;7*1H2;;;;;;;;;;;;;/q6*+3;;;;;;;;11*-2;2*+2","RegNum":{"tml_elements":["nOrgNum"],"nOrgNum":4},"sStandardInChIKey":"IIHHNNCJVLYNJL-UHFFFAOYSA-N"},{"tml_elements":["RegNum","sStandardInChI","sStandardInChIKey","sCommonName","sFormulaMolec","Sample"],"Sample":[{"purity":[{"tml_elements":["nStep","nPurityMol","nPurityMolDigits","eAnalMeth"],"nPurityMol":99,"nPurityMolDigits":2,"nStep":1,"eAnalMeth":["Chemical analysis"]}],"tml_elements":["nSampleNm","eSource","purity"],"eSource":"Synthesized by the authors","nSampleNm":1}],"sCommonName":["boron zinc oxide (B10Zn3O18), hydrate (1:14)"],"sFormulaMolec":"B10H28O32Zn3","sStandardInChI":"InChI=1S/10B.14H2O.18O.3Zn/h;;;;;;;;;;14*1H2;;;;;;;;;;;;;;;;;;;;;/q10*+3;;;;;;;;;;;;;;;18*-2;3*+2","RegNum":{"nOrgNum":5,"tml_elements":["nOrgNum"]},"sStandardInChIKey":"YREAQYJRJVXTTH-UHFFFAOYSA-N"}],"THERMOML_MD5_CHECKSUM":"e2862a22733625be275b4c3f33c83b17","Version":{"nVersionMajor":2,"nVersionMinor":0,"tml_elements":["nVersionMajor","nVersionMinor"]},"Citation":{"eSourceType":"Original","tml_elements":["TRCRefID","eType","eSourceType","sAuthor","sPubName","yrPubYr","dateCit","sTitle","sAbstract","sKeyword","sDOI","sIDNum","sVol","sPage"],"sAuthor":["Gao, Y.-H.[Yi-Hong]","Liu, Z.-H.[Zhi-Hong]"],"sKeyword":["Zinc borate","Thermal analysis","Standard molar enthalpy of formation","Solution calorimetry"],"TRCRefID":{"yrYrPub":"2009","nAuthorn":"0","tml_elements":["yrYrPub","sAuthor1","sAuthor2","nAuthorn"],"sAuthor2":"liu","sAuthor1":"gao"},"sAbstract":"Two pure zinc borates, Zn2B6O11*7H2O and Zn3B10O18*14H2O have been synthesized and characterized  by XRD, FT-IR, DTA TG techniques and chemical analysis. The molar enthalpies of  solution of Zn2B6O11*7H2O(s) and Zn3B10O18*14H2O(s) in 1 moldm-3 HCl(aq) were measured to be  15.42+-0.03 kJ mol-1 and 57.78+-0.11 kJ mol-1, respectively. The molar enthalpy of solution of ZnO(s)  in (HCl +H3BO3)(aq) was determined to be -80.01+-0.15 kJ mol-1. With incorporation of the previously  determined enthalpy of solution of H3BO3(s) in 1 moldm-3 HCl(aq), and the standard molar  enthalpies of formation for ZnO(s), H3BO3(s), and H2O(l), the standard molar enthalpies of formation  of -6738.1+-4.8 kJ mol-1 for Zn2B6O11*7H2O and -11,786.4+-8.0 kJ mol-1 for Zn3B10O18*14H2O were  obtained.","sTitle":"Synthesis and thermochemistry of two zinc borates, Zn2B6O11*7H2O and  Zn3B10O18*14H2O","sDOI":"10.1016/j.tca.2008.11.013","sIDNum":"1-2","dateCit":"2020-09-29","sPubName":"Thermochim. Acta","yrPubYr":"2009","sVol":"484","eType":"journal","sPage":"27-31"}}