{"Version":{"tml_elements":["nVersionMajor","nVersionMinor"],"nVersionMajor":2,"nVersionMinor":0},"tml_elements":["Version","Citation","Compound","ReactionData"],"ReactionData":[{"nReactionDataNumber":1,"sContributor":"TRC","eReactionType":"Other reactions","tml_elements":["nReactionDataNumber","Participant","eExpPurpose","sCompiler","sContributor","dateDateAdded","eReactionType","Property","NumValues"],"Participant":[{"RegNum":{"tml_elements":["nOrgNum"],"nOrgNum":1},"nStoichiometricCoef":"-2","ePhase":"Crystal","tml_elements":["RegNum","nStoichiometricCoef","ePhase"]},{"tml_elements":["RegNum","nStoichiometricCoef","ePhase"],"ePhase":"Crystal","nStoichiometricCoef":"-4","RegNum":{"tml_elements":["nOrgNum"],"nOrgNum":2}},{"nSampleNm":1,"nStoichiometricCoef":"1","RegNum":{"nOrgNum":4,"tml_elements":["nOrgNum"]},"ePhase":"Crystal","tml_elements":["RegNum","nSampleNm","nStoichiometricCoef","ePhase"]},{"tml_elements":["RegNum","nStoichiometricCoef","ePhase"],"ePhase":"Liquid","nStoichiometricCoef":"5","RegNum":{"tml_elements":["nOrgNum"],"nOrgNum":3}}],"sCompiler":"VVD","dateDateAdded":"5/3/2013","NumValues":[{"PropertyValue":[{"nPropDigits":5,"nPropNumber":1,"tml_elements":["nPropNumber","nPropValue","nPropDigits","CombinedUncertainty"],"nPropValue":-179.03,"CombinedUncertainty":{"tml_elements":["nCombUncertAssessNum","nCombExpandUncertValue"],"nCombExpandUncertValue":1.62,"nCombUncertAssessNum":1}}],"tml_elements":["PropertyValue"],"VariableValue":[]}],"eExpPurpose":"Principal objective of the work","Property":[{"Property-MethodID":{"PropertyGroup":{"tml_elements":["ReactionStateChangeProp"],"ReactionStateChangeProp":{"tml_elements":["ePropName","sMethodName"],"ePropName":"Molar enthalpy of reaction, kJ/mol","sMethodName":"Solution calorimetry"}},"tml_elements":["PropertyGroup"]},"nTemperatureDigits":5,"nTemperature-K":"298.15","CombinedUncertainty":{"sCombUncertEvaluator":"Data file compiler","nCombUncertAssessNum":1,"eCombUncertEvalMethod":"Propagation of evaluated standard uncertainties","nCombUncertLevOfConfid":95,"tml_elements":["nCombUncertAssessNum","sCombUncertEvaluator","eCombUncertEvalMethod","nCombUncertLevOfConfid"]},"nPressure-kPa":"101.325","nPressureDigits":6,"nPropNumber":1,"tml_elements":["nPropNumber","Property-MethodID","nTemperature-K","nTemperatureDigits","nPressure-kPa","nPressureDigits","CombinedUncertainty"]}]}],"THERMOML_MD5_CHECKSUM":"e623d0d6dbcb891d38dee1ae11c0398c","Compound":[{"sStandardInChI":"InChI=1S/Ca.O/q+2;-2","RegNum":{"tml_elements":["nOrgNum"],"nOrgNum":1},"sStandardInChIKey":"BRPQOXSCLDDYGP-UHFFFAOYSA-N","sFormulaMolec":"CaO","sCommonName":["calcium monoxide","calcia","calcium oxide","caloxol CP 2","caloxol W 3","calx","calxyl","desical P","rhenosorb C","rhenosorb F"],"tml_elements":["RegNum","sStandardInChI","sStandardInChIKey","sCommonName","sFormulaMolec"]},{"sStandardInChIKey":"KGBXLFKZBHKPEV-UHFFFAOYSA-N","RegNum":{"nOrgNum":2,"tml_elements":["nOrgNum"]},"sStandardInChI":"InChI=1S/BH3O3/c2-1(3)4/h2-4H","sFormulaMolec":"BH3O3","tml_elements":["RegNum","sStandardInChI","sStandardInChIKey","sCommonName","sFormulaMolec"],"sCommonName":["boric acid"]},{"sStandardInChI":"InChI=1S/H2O/h1H2","RegNum":{"tml_elements":["nOrgNum"],"nOrgNum":3},"sCommonName":["water"],"tml_elements":["RegNum","sStandardInChI","sStandardInChIKey","sCommonName","sFormulaMolec"],"sFormulaMolec":"H2O","sStandardInChIKey":"XLYOFNOQVPJJNP-UHFFFAOYSA-N"},{"sStandardInChIKey":"AXJXOYWPYRRKMI-UHFFFAOYSA-N","sStandardInChI":"InChI=1S/B4H2O9.2Ca/c5-1-9-3(7)11-2(6)12-4(8,10-1)13-3;;/h7-8H;;/q-4;2*+2","RegNum":{"tml_elements":["nOrgNum"],"nOrgNum":4},"sFormulaMolec":"B4Ca2H2O9","sCommonName":["borate(4-), dihydroxybis[.mu.-[orthoborato(3-)-.kappa.O:.kappa.O']]-.mu.-oxodi-, calcium (1:2)"],"Sample":[{"nSampleNm":1,"eSource":"Synthesized by the authors","tml_elements":["nSampleNm","eSource","purity"],"purity":[{"tml_elements":["nStep","nPurityMol","nPurityMolDigits","eAnalMeth"],"nPurityMol":99,"nStep":1,"nPurityMolDigits":2,"eAnalMeth":["Estimated by the compiler"]}]}],"tml_elements":["RegNum","sStandardInChI","sStandardInChIKey","sCommonName","sFormulaMolec","Sample"]}],"Citation":{"dateCit":"2020-09-29","sIDNum":"1-2","yrPubYr":"2005","sPubName":"Thermochim. Acta","sPage":"196-199","eType":"journal","sVol":"433","eSourceType":"Original","sAbstract":"A pure calcium borate Ca2[B4O7(OH)2] has been synthesized under hydrothermal condition and characterized by XRD, FT-IR and TG as well as by chemical analysis. The molar enthalpy of solution of Ca2[B4O7(OH)2] in HCl*54.549H2O was determined. From a combination of this result with measured enthalpies of solution of H3BO3 in HCl*54.517H2O and of CaO in (HCl+H3BO3) solution, together with the standard molar enthalpies of formation of CaO(s), H3BO3(s), and H2O(l), the standard molar enthalpy of formation of  (4398.9+-3.8) kJ mol-1 for Ca2[B4O7(OH)2] was obtained.","TRCRefID":{"sAuthor2":"li","sAuthor1":"liu","nAuthorn":"0","tml_elements":["yrYrPub","sAuthor1","sAuthor2","nAuthorn"],"yrYrPub":"2005"},"sDOI":"10.1016/j.tca.2005.03.010","sTitle":"Standard molar enthalpy of formation of Ca2[B4O7(OH)2]","tml_elements":["TRCRefID","eType","eSourceType","sAuthor","sPubName","yrPubYr","dateCit","sTitle","sAbstract","sKeyword","sDOI","sIDNum","sVol","sPage"],"sAuthor":["Liu, Z.[Zhihong]","Li, S.[Saying]","Zuo, C.[Chuanfeng]"],"sKeyword":["Ca2[B4O7(OH)2]","Standard molar enthalpy of formation","Solution calorimetry"]}}