{"Version":{"tml_elements":["nVersionMajor","nVersionMinor"],"nVersionMinor":0,"nVersionMajor":2},"Citation":{"TRCRefID":{"yrYrPub":"2005","nAuthorn":"0","tml_elements":["yrYrPub","sAuthor1","sAuthor2","nAuthorn"],"sAuthor1":"mon","sAuthor2":"pop"},"sAbstract":"The enthalpies of reactions between alkaline-earth cuprates M2CuO3 (M = Ca, Sr) and hydrochloric acid were measured in a hermetic swinging calorimeter at 298.15 K. The M2CuO3 samples were prepared by solid-phase synthesis from calcium or strontium carbonate and copper oxide and characterized by X-ray powder diffraction, EDX and wet analysis. The standard enthalpies of formation obtained for the cuprates, -1431+-4 kJmol-1 for Ca2CuO3 and -1374+-3 kJmol-1 for Sr2CuO3, are discussed and compared with previous experimental and assessed values.","sDOI":"10.1016/j.tca.2004.12.017","sTitle":"Standard enthalpies of formation of Sr2CuO3 and Ca2CuO3","tml_elements":["TRCRefID","eType","eSourceType","sAuthor","sPubName","yrPubYr","dateCit","sTitle","sAbstract","sKeyword","sDOI","sIDNum","sVol","sPage"],"sAuthor":["Monayenkova, A. S.","Popova, A. A.","Tiphlova, L. A.","Gorushkina, Y. V.","Tsoi, A. V.","Romanova, I. P.","Alyoshin, V. A."],"sKeyword":["Solution calorimetry","Enthalpy of reaction","Enthalpy of formation","Alkaline-earth cuprates","Ca2CuO3","Sr2CuO3"],"eSourceType":"Original","sPage":"83-86","sVol":"430","eType":"journal","yrPubYr":"2005","sPubName":"Thermochim. Acta","dateCit":"2020-09-29","sIDNum":"1-2"},"tml_elements":["Version","Citation","Compound","ReactionData"],"ReactionData":[{"sContributor":"TRC","nReactionDataNumber":1,"tml_elements":["nReactionDataNumber","Participant","eExpPurpose","sCompiler","sContributor","dateDateAdded","eReactionType","Property","NumValues"],"Participant":[{"nStoichiometricCoef":"-2","RegNum":{"nOrgNum":1,"tml_elements":["nOrgNum"]},"ePhase":"Crystal","tml_elements":["RegNum","nStoichiometricCoef","ePhase"]},{"RegNum":{"nOrgNum":2,"tml_elements":["nOrgNum"]},"nStoichiometricCoef":"-1","ePhase":"Crystal","tml_elements":["RegNum","nStoichiometricCoef","ePhase"]},{"tml_elements":["RegNum","nSampleNm","nStoichiometricCoef","ePhase"],"ePhase":"Crystal","nStoichiometricCoef":"1","nSampleNm":1,"RegNum":{"tml_elements":["nOrgNum"],"nOrgNum":4}}],"eReactionType":"Other reactions","NumValues":[{"PropertyValue":[{"tml_elements":["nPropNumber","nPropValue","nPropDigits","CombinedUncertainty"],"nPropDigits":3,"nPropNumber":1,"CombinedUncertainty":{"nCombExpandUncertValue":7.2,"tml_elements":["nCombUncertAssessNum","nCombExpandUncertValue"],"nCombUncertAssessNum":1},"nPropValue":-32.7}],"tml_elements":["PropertyValue"],"VariableValue":[]}],"dateDateAdded":"6/16/2005","sCompiler":"VVD","eExpPurpose":"Principal objective of the work","Property":[{"nTemperature-K":"298.15","CombinedUncertainty":{"sCombUncertEvaluator":"Data file compiler","nCombUncertAssessNum":1,"nCombUncertLevOfConfid":95,"eCombUncertEvalMethod":"Propagation of evaluated standard uncertainties","tml_elements":["nCombUncertAssessNum","sCombUncertEvaluator","eCombUncertEvalMethod","nCombUncertLevOfConfid"]},"nPressureDigits":6,"nPressure-kPa":"101.325","Property-MethodID":{"PropertyGroup":{"ReactionStateChangeProp":{"ePropName":"Molar enthalpy of reaction, kJ/mol","sMethodName":"Solution calorimetry","tml_elements":["ePropName","sMethodName"]},"tml_elements":["ReactionStateChangeProp"]},"tml_elements":["PropertyGroup"]},"nTemperatureDigits":5,"nPropNumber":1,"tml_elements":["nPropNumber","Property-MethodID","nTemperature-K","nTemperatureDigits","nPressure-kPa","nPressureDigits","CombinedUncertainty"]}]},{"eReactionType":"Other reactions","tml_elements":["nReactionDataNumber","Participant","eExpPurpose","sCompiler","sContributor","dateDateAdded","eReactionType","Property","NumValues"],"Participant":[{"tml_elements":["RegNum","nStoichiometricCoef","ePhase"],"ePhase":"Crystal","RegNum":{"tml_elements":["nOrgNum"],"nOrgNum":3},"nStoichiometricCoef":"-2"},{"RegNum":{"nOrgNum":2,"tml_elements":["nOrgNum"]},"nStoichiometricCoef":"-1","tml_elements":["RegNum","nStoichiometricCoef","ePhase"],"ePhase":"Crystal"},{"tml_elements":["RegNum","nSampleNm","nStoichiometricCoef","ePhase"],"ePhase":"Crystal","nStoichiometricCoef":"1","nSampleNm":1,"RegNum":{"tml_elements":["nOrgNum"],"nOrgNum":5}}],"sContributor":"TRC","nReactionDataNumber":2,"eExpPurpose":"Principal objective of the work","Property":[{"tml_elements":["nPropNumber","Property-MethodID","nTemperature-K","nTemperatureDigits","nPressure-kPa","nPressureDigits","CombinedUncertainty"],"nPropNumber":1,"nTemperatureDigits":5,"Property-MethodID":{"tml_elements":["PropertyGroup"],"PropertyGroup":{"tml_elements":["ReactionStateChangeProp"],"ReactionStateChangeProp":{"sMethodName":"Solution calorimetry","ePropName":"Molar enthalpy of reaction, kJ/mol","tml_elements":["ePropName","sMethodName"]}}},"nPressureDigits":6,"nPressure-kPa":"101.325","nTemperature-K":"298.15","CombinedUncertainty":{"sCombUncertEvaluator":"Data file compiler","nCombUncertAssessNum":1,"eCombUncertEvalMethod":"Propagation of evaluated standard uncertainties","nCombUncertLevOfConfid":95,"tml_elements":["nCombUncertAssessNum","sCombUncertEvaluator","eCombUncertEvalMethod","nCombUncertLevOfConfid"]}}],"NumValues":[{"VariableValue":[],"tml_elements":["PropertyValue"],"PropertyValue":[{"nPropValue":-3.5,"CombinedUncertainty":{"nCombUncertAssessNum":1,"tml_elements":["nCombUncertAssessNum","nCombExpandUncertValue"],"nCombExpandUncertValue":8.5},"tml_elements":["nPropNumber","nPropValue","nPropDigits","CombinedUncertainty"],"nPropDigits":2,"nPropNumber":1}]}],"sCompiler":"VVD","dateDateAdded":"6/16/2005"}],"THERMOML_MD5_CHECKSUM":"1ef9a7363dee338bfe8778beadaf4b10","Compound":[{"RegNum":{"nOrgNum":1,"tml_elements":["nOrgNum"]},"sStandardInChI":"InChI=1S/O.Sr/q-2;+2","sStandardInChIKey":"IATRAKWUXMZMIY-UHFFFAOYSA-N","sFormulaMolec":"OSr","tml_elements":["RegNum","sStandardInChI","sStandardInChIKey","sCommonName","sFormulaMolec"],"sCommonName":["strontium oxide (SrO)","strontia","strontium monoxide","strontium oxide"]},{"sStandardInChIKey":"KKCXRELNMOYFLS-UHFFFAOYSA-N","sFormulaMolec":"CuO","tml_elements":["RegNum","sStandardInChI","sStandardInChIKey","sCommonName","sFormulaMolec"],"sCommonName":["copper(II) oxide","cupric oxide"],"RegNum":{"nOrgNum":2,"tml_elements":["nOrgNum"]},"sStandardInChI":"InChI=1S/Cu.O/q+2;-2"},{"sStandardInChIKey":"BRPQOXSCLDDYGP-UHFFFAOYSA-N","RegNum":{"nOrgNum":3,"tml_elements":["nOrgNum"]},"sStandardInChI":"InChI=1S/Ca.O/q+2;-2","sFormulaMolec":"CaO","sCommonName":["calcium monoxide","calcia","calcium oxide","caloxol CP 2","caloxol W 3","calx","calxyl","desical P","rhenosorb C","rhenosorb F"],"tml_elements":["RegNum","sStandardInChI","sStandardInChIKey","sCommonName","sFormulaMolec"]},{"Sample":[{"nSampleNm":1,"eSource":"Synthesized by the authors","purity":[{"eAnalMeth":["Chemical analysis"],"nPurityMol":99,"tml_elements":["nStep","nPurityMol","nPurityMolDigits","eAnalMeth"],"nPurityMolDigits":2,"nStep":1}],"tml_elements":["nSampleNm","eSource","purity"]}],"tml_elements":["RegNum","sStandardInChI","sStandardInChIKey","sCommonName","sFormulaMolec","Sample"],"sCommonName":["strontium cuprate"],"sFormulaMolec":"CuO3Sr2","sStandardInChIKey":"VAEPJTUSEJADQR-UHFFFAOYSA-N","sStandardInChI":"InChI=1S/Cu.3O.2Sr/q+2;3*-2;2*+2","RegNum":{"tml_elements":["nOrgNum"],"nOrgNum":4}},{"sStandardInChIKey":"AEUOYGBYDDJSJS-UHFFFAOYSA-N","RegNum":{"nOrgNum":5,"tml_elements":["nOrgNum"]},"sStandardInChI":"InChI=1S/2Ca.Cu.3O/q3*+2;3*-2","sFormulaMolec":"Ca2CuO3","Sample":[{"tml_elements":["nSampleNm","eSource","purity"],"purity":[{"nStep":1,"nPurityMolDigits":2,"tml_elements":["nStep","nPurityMol","nPurityMolDigits","eAnalMeth"],"nPurityMol":99,"eAnalMeth":["Chemical analysis"]}],"eSource":"Synthesized by the authors","nSampleNm":1}],"tml_elements":["RegNum","sStandardInChI","sStandardInChIKey","sCommonName","sFormulaMolec","Sample"],"sCommonName":["calcium cuprate"]}]}