{"Version":{"tml_elements":["nVersionMajor","nVersionMinor"],"nVersionMajor":2,"nVersionMinor":0},"Compound":[{"tml_elements":["RegNum","sStandardInChI","sStandardInChIKey","sCommonName","sFormulaMolec","Sample"],"Sample":[{"eSource":"Synthesized by the authors","nSampleNm":1,"purity":[{"nPurityMolDigits":2,"nStep":1,"nPurityMol":98,"tml_elements":["nStep","nPurityMol","nPurityMolDigits","eAnalMeth"],"eAnalMeth":["Estimated by the compiler"]}],"tml_elements":["nSampleNm","eSource","purity"]}],"sCommonName":["calcium phosphate"],"sFormulaMolec":"Ca3O8P2","sStandardInChIKey":"QORWJWZARLRLPR-UHFFFAOYSA-H","sStandardInChI":"InChI=1S/3Ca.2H3O4P/c;;;2*1-5(2,3)4/h;;;2*(H3,1,2,3,4)/q3*+2;;/p-6","RegNum":{"nOrgNum":1,"tml_elements":["nOrgNum"]}},{"sStandardInChIKey":"JUNWLZAGQLJVLR-UHFFFAOYSA-J","sStandardInChI":"InChI=1S/2Ca.H4O7P2/c;;1-8(2,3)7-9(4,5)6/h;;(H2,1,2,3)(H2,4,5,6)/q2*+2;/p-4","RegNum":{"tml_elements":["nOrgNum"],"nOrgNum":2},"sFormulaMolec":"Ca2O7P2","sCommonName":["calcium pyrophosphate"],"tml_elements":["RegNum","sStandardInChI","sStandardInChIKey","sCommonName","sFormulaMolec","Sample"],"Sample":[{"eSource":"Synthesized by the authors","nSampleNm":1,"tml_elements":["nSampleNm","eSource","purity"],"purity":[{"nStep":1,"nPurityMolDigits":2,"nPurityMol":98,"tml_elements":["nStep","nPurityMol","nPurityMolDigits","eAnalMeth"],"eAnalMeth":["Estimated by the compiler"]}]}]},{"sFormulaMolec":"Ca8O23P6","tml_elements":["RegNum","sStandardInChI","sStandardInChIKey","sCommonName","sFormulaMolec","Sample"],"Sample":[{"tml_elements":["nSampleNm","eSource","purity"],"purity":[{"nPurityMolDigits":2,"nStep":1,"tml_elements":["nStep","nPurityMol","nPurityMolDigits","eAnalMeth"],"nPurityMol":98,"eAnalMeth":["Estimated by the compiler"]}],"nSampleNm":1,"eSource":"Synthesized by the authors"}],"sCommonName":["calcium (diphosphate) phosphate (Ca8(P2O7)(PO4)4)"],"sStandardInChIKey":"FKXHFCFCKZGOAS-UHFFFAOYSA-A","sStandardInChI":"InChI=1S/8Ca.H4O7P2.4H3O4P/c;;;;;;;;1-8(2,3)7-9(4,5)6;4*1-5(2,3)4/h;;;;;;;;(H2,1,2,3)(H2,4,5,6);4*(H3,1,2,3,4)/q8*+2;;;;;/p-16","RegNum":{"nOrgNum":3,"tml_elements":["nOrgNum"]}}],"Citation":{"sPage":"8-11","sVol":"474","eType":"journal","sIDNum":"1-2","dateCit":"2020-09-29","sPubName":"Thermochim. Acta","yrPubYr":"2008","TRCRefID":{"yrYrPub":"2008","tml_elements":["yrYrPub","sAuthor1","sAuthor2","nAuthorn"],"nAuthorn":"0","sAuthor2":"rog","sAuthor1":"cha"},"sAbstract":"The calcium mixed phosphate Ca8P2O7(PO4)4 has been synthesized by thermal  decomposition of octocalciumphosphate previously prepared by precipitation in amoniacal  phosphate solution. The enthalpy of formation at 298.15 K referenced to . tricalcium  phosphate and calcium pyrophosphate is determined. The . tricalcium phosphate was  prepared by two methods : precipitation in amoniacal aqueous medium and high temperature  solid state reaction. The calcium pyrophosphate was prepared too by high temperature solid  state reaction. All the compounds and characterized by chemical analysis, X-rays diffraction  and IR spectroscopy. The enthalpy of formation +10.83.0.68 kJ/mol is obtained by solution  calorimetry at 298.15 K in nitric acid.","sTitle":"Thermochemistry of mixed calcium phosphate Ca8P2O7(PO4)4","sDOI":"10.1016/j.tca.2008.04.021","tml_elements":["TRCRefID","eType","eSourceType","sAuthor","sPubName","yrPubYr","dateCit","sTitle","sAbstract","sKeyword","sDOI","sIDNum","sVol","sPage"],"sAuthor":["Chabchoub, S.","Rogez, J.","Said, H."],"sKeyword":["calcium phosphates","acid bath calorimetry","heat of formation"],"eSourceType":"Original"},"THERMOML_MD5_CHECKSUM":"44560331cdcc774e72ffaf8685611417","ReactionData":[{"eExpPurpose":"Principal objective of the work","Property":[{"Property-MethodID":{"tml_elements":["PropertyGroup"],"PropertyGroup":{"tml_elements":["ReactionStateChangeProp"],"ReactionStateChangeProp":{"tml_elements":["ePropName","sMethodName"],"ePropName":"Molar enthalpy of reaction, kJ/mol","sMethodName":"Solution calorimetry"}}},"nTemperatureDigits":5,"CombinedUncertainty":{"tml_elements":["nCombUncertAssessNum","sCombUncertEvaluator","eCombUncertEvalMethod","nCombUncertLevOfConfid"],"nCombUncertLevOfConfid":95,"eCombUncertEvalMethod":"Propagation of evaluated standard uncertainties","nCombUncertAssessNum":1,"sCombUncertEvaluator":"Data file compiler"},"nTemperature-K":"298.15","nPressure-kPa":"101.325","nPressureDigits":6,"nPropNumber":1,"tml_elements":["nPropNumber","Property-MethodID","nTemperature-K","nTemperatureDigits","nPressure-kPa","nPressureDigits","CombinedUncertainty"]}],"NumValues":[{"VariableValue":[],"PropertyValue":[{"nPropValue":10.83,"CombinedUncertainty":{"nCombUncertAssessNum":1,"nCombExpandUncertValue":0.68,"tml_elements":["nCombUncertAssessNum","nCombExpandUncertValue"]},"nPropNumber":1,"nPropDigits":4,"tml_elements":["nPropNumber","nPropValue","nPropDigits","CombinedUncertainty"]}],"tml_elements":["PropertyValue"]}],"sCompiler":"VVD","dateDateAdded":"9/6/2007","eReactionType":"Other reactions","tml_elements":["nReactionDataNumber","Participant","eExpPurpose","sCompiler","sContributor","dateDateAdded","eReactionType","Property","NumValues"],"Participant":[{"RegNum":{"nOrgNum":2,"tml_elements":["nOrgNum"]},"nStoichiometricCoef":"-1","nSampleNm":1,"tml_elements":["RegNum","nSampleNm","nStoichiometricCoef","ePhase"],"ePhase":"Crystal"},{"ePhase":"Crystal","tml_elements":["RegNum","nSampleNm","nStoichiometricCoef","ePhase"],"RegNum":{"nOrgNum":3,"tml_elements":["nOrgNum"]},"nSampleNm":1,"nStoichiometricCoef":"1"},{"ePhase":"Crystal","tml_elements":["RegNum","nSampleNm","nStoichiometricCoef","ePhase"],"nSampleNm":1,"nStoichiometricCoef":"-2","RegNum":{"nOrgNum":1,"tml_elements":["nOrgNum"]}}],"sContributor":"TRC","nReactionDataNumber":1}],"tml_elements":["Version","Citation","Compound","ReactionData"]}