{"Version":{"tml_elements":["nVersionMajor","nVersionMinor"],"nVersionMajor":2,"nVersionMinor":0},"Citation":{"eSourceType":"Original","sAbstract":"The product from reaction of lanthanum chloride seven-hydrate with salicylic acid and 8-hydroxyquinoline, La(C7H5O3)2*(C9H6NO), was characterized by IR, elemental analysis, molar conductance, and thermogravimetric analysis. The standard molar enthalpies of solution of [LaCl3*7H2O(s)], [2C7H6O3 (s)], [C9H7NO(s)] and [La(C7H5O3)2*(C9H6NO) (s)] in a mixed solvent of absolute ethyl alcohol, dimethyl formamide (DMF) and perchloric acid were determined by calorimetry to be dsHm [LaCl3*7H2O (s), 298.15 K] =-96.45+-0.18 kJ mol-1, dsHm [2C7H6O3 (s), 298.15 K] = 14.99+-0.17 kJ mol-1, dsHm  m [C9H7NO (s), 298.15 K] =-3.86+-0.06 kJ mol-1 and dsHm  m [La(C7H5O3)2*(C9H6NO) (s), 298.15 K] =-117.78+-0.11 kJ mol-1. The enthalpy change of the reaction LaCl3*7H2O(s) + 2C7H6O3 (s) + C9H7NO(s) = La (C7H5O3)2*(C9H6NO) (s) + 3HCl (g) + 7H2O(l) (1) was determined to be drHm  m = 91.57+-0.34 kJ mol-1. From data in the literature, through Hess  law, the standard molar enthalpy of formation of La(C7H5O3)2*(C9H7NO) (s) was estimated to be dfHm  m [La(C7H5O3)2*(C9H6NO) (s), 298.15 K] =- 2076.5+-3.9 kJ mol-1.","TRCRefID":{"yrYrPub":"2006","sAuthor2":"xu","sAuthor1":"qia","tml_elements":["yrYrPub","sAuthor1","sAuthor2","nAuthorn"],"nAuthorn":"0"},"sDOI":"10.1016/j.tca.2005.10.015","sTitle":"Synthesis, characterization and standard molar enthalpy of formation of La(C7H5O3)2*(C9H6NO)","tml_elements":["TRCRefID","eType","eSourceType","sAuthor","sPubName","yrPubYr","dateCit","sTitle","sAbstract","sKeyword","sDOI","sIDNum","sVol","sPage"],"sAuthor":["Qiang-Guo, L.[Li]","Xu, L.[Li]","Yi, H.[Huang]","Sheng-Xiong, X.[Xiao]","De-Jun, Y.[Yang]","Li-Juan, Y.[Ye]","De-Liang, W.[Wei]","Yi, L.[Liu]"],"sKeyword":["Lanthanum chloride seven-hydrate","Salicylic acid","8-Hydroxyquinoline","Standard molar enthalpy of formation"],"sIDNum":"2","dateCit":"2020-09-29","yrPubYr":"2006","sPubName":"Thermochim. Acta","sPage":"195-198","sVol":"441","eType":"journal"},"ReactionData":[{"sContributor":"TRC","nReactionDataNumber":1,"tml_elements":["nReactionDataNumber","Participant","eExpPurpose","sCompiler","sContributor","dateDateAdded","eReactionType","Property","NumValues"],"Participant":[{"nStoichiometricCoef":"-2","nSampleNm":1,"RegNum":{"nOrgNum":5,"tml_elements":["nOrgNum"]},"tml_elements":["RegNum","nSampleNm","nStoichiometricCoef","ePhase"],"ePhase":"Crystal"},{"ePhase":"Crystal","tml_elements":["RegNum","nSampleNm","nStoichiometricCoef","ePhase"],"RegNum":{"tml_elements":["nOrgNum"],"nOrgNum":6},"nSampleNm":1,"nStoichiometricCoef":"-1"},{"ePhase":"Gas","tml_elements":["RegNum","nStoichiometricCoef","ePhase"],"nStoichiometricCoef":"3","RegNum":{"nOrgNum":1,"tml_elements":["nOrgNum"]}},{"tml_elements":["RegNum","nSampleNm","nStoichiometricCoef","ePhase"],"ePhase":"Crystal","RegNum":{"tml_elements":["nOrgNum"],"nOrgNum":4},"nStoichiometricCoef":"-1","nSampleNm":1},{"tml_elements":["RegNum","nSampleNm","nStoichiometricCoef","ePhase"],"ePhase":"Crystal","RegNum":{"tml_elements":["nOrgNum"],"nOrgNum":3},"nStoichiometricCoef":"1","nSampleNm":1},{"RegNum":{"nOrgNum":2,"tml_elements":["nOrgNum"]},"nStoichiometricCoef":"7","ePhase":"Liquid","tml_elements":["RegNum","nStoichiometricCoef","ePhase"]}],"eReactionType":"Other reactions","NumValues":[{"PropertyValue":[{"nPropNumber":1,"nPropDigits":4,"tml_elements":["nPropNumber","nPropValue","nPropDigits","CombinedUncertainty"],"CombinedUncertainty":{"nCombUncertAssessNum":1,"nCombExpandUncertValue":0.68,"tml_elements":["nCombUncertAssessNum","nCombExpandUncertValue"]},"nPropValue":91.57}],"tml_elements":["PropertyValue"],"VariableValue":[]}],"dateDateAdded":"5/3/2013","sCompiler":"VVD","eExpPurpose":"Principal objective of the work","Property":[{"Property-MethodID":{"tml_elements":["PropertyGroup"],"PropertyGroup":{"tml_elements":["ReactionStateChangeProp"],"ReactionStateChangeProp":{"ePropName":"Molar enthalpy of reaction, kJ/mol","sMethodName":"Solution calorimetry","tml_elements":["ePropName","sMethodName"]}}},"nTemperatureDigits":5,"CombinedUncertainty":{"eCombUncertEvalMethod":"Propagation of evaluated standard uncertainties","nCombUncertLevOfConfid":95,"tml_elements":["nCombUncertAssessNum","sCombUncertEvaluator","eCombUncertEvalMethod","nCombUncertLevOfConfid"],"sCombUncertEvaluator":"Data file compiler","nCombUncertAssessNum":1},"nTemperature-K":"298.15","nPressure-kPa":"101.325","nPressureDigits":6,"nPropNumber":1,"tml_elements":["nPropNumber","Property-MethodID","nTemperature-K","nTemperatureDigits","nPressure-kPa","nPressureDigits","CombinedUncertainty"]}]}],"tml_elements":["Version","Citation","Compound","ReactionData"],"Compound":[{"tml_elements":["RegNum","sStandardInChI","sStandardInChIKey","sCommonName","sFormulaMolec"],"sCommonName":["hydrogen chloride"],"sFormulaMolec":"ClH","RegNum":{"nOrgNum":1,"tml_elements":["nOrgNum"]},"sStandardInChI":"InChI=1S/ClH/h1H","sStandardInChIKey":"VEXZGXHMUGYJMC-UHFFFAOYSA-N"},{"sFormulaMolec":"H2O","tml_elements":["RegNum","sStandardInChI","sStandardInChIKey","sCommonName","sFormulaMolec"],"sCommonName":["water"],"sStandardInChIKey":"XLYOFNOQVPJJNP-UHFFFAOYSA-N","RegNum":{"nOrgNum":2,"tml_elements":["nOrgNum"]},"sStandardInChI":"InChI=1S/H2O/h1H2"},{"sFormulaMolec":"C23H16LaNO7","sCommonName":["(8-quinolinolato)bis(salicylato)lanthanum"],"Sample":[{"eSource":"Synthesized by the authors","nSampleNm":1,"purity":[{"nStep":1,"tml_elements":["nStep","ePurifMethod"],"ePurifMethod":["Dried in a desiccator"]},{"tml_elements":["nStep","nPurityMol","nPurityMolDigits","eAnalMeth"],"nPurityMol":99.5,"nPurityMolDigits":3,"nStep":2,"eAnalMeth":["Chemical analysis"]}],"tml_elements":["nSampleNm","eSource","purity"]}],"tml_elements":["RegNum","sStandardInChI","sStandardInChIKey","sCommonName","sFormulaMolec","Sample"],"RegNum":{"nOrgNum":3,"tml_elements":["nOrgNum"]},"sStandardInChI":"InChI=1S/C9H7NO.2C7H6O3.La/c11-8-5-1-3-7-4-2-6-10-9(7)8;2*8-6-4-2-1-3-5(6)7(9)10;/h1-6,11H;2*1-4,8H,(H,9,10);/q;;;+3/p-3","sStandardInChIKey":"PYZUEIOAKWGWHD-UHFFFAOYSA-K"},{"sStandardInChIKey":"FDFPDGIMPRFRJP-UHFFFAOYSA-K","RegNum":{"nOrgNum":4,"tml_elements":["nOrgNum"]},"sStandardInChI":"InChI=1S/3ClH.La.7H2O/h3*1H;;7*1H2/q;;;+3;;;;;;;/p-3","Sample":[{"purity":[{"tml_elements":["nStep","nUnknownPerCent","nUnknownPerCentDigits","eAnalMeth"],"nStep":1,"eAnalMeth":["Stated by supplier"],"nUnknownPerCent":99,"nUnknownPerCentDigits":2}],"tml_elements":["nSampleNm","eSource","purity"],"nSampleNm":1,"eSource":"Commercial source"}],"sCommonName":["lanthanum (III) chloride heptahydrate"],"tml_elements":["RegNum","sStandardInChI","sStandardInChIKey","sCommonName","sFormulaMolec","Sample"],"sFormulaMolec":"Cl3H14LaO7"},{"sCommonName":["2-hydroxybenzoic acid","benzoic acid, 2-hydroxy-","o-hydroxybenzoic acid","phenol-2-carboxylic acid","salicylic acid"],"Sample":[{"purity":[{"tml_elements":["nStep","nUnknownPerCent","nUnknownPerCentDigits","eAnalMeth"],"nStep":1,"eAnalMeth":["Stated by supplier"],"nUnknownPerCent":99.5,"nUnknownPerCentDigits":3}],"tml_elements":["nSampleNm","eSource","purity"],"eSource":"Commercial source","nSampleNm":1}],"tml_elements":["RegNum","sStandardInChI","sStandardInChIKey","sCommonName","sFormulaMolec","Sample"],"sFormulaMolec":"C7H6O3","RegNum":{"nOrgNum":5,"tml_elements":["nOrgNum"]},"sStandardInChI":"InChI=1S/C7H6O3/c8-6-4-2-1-3-5(6)7(9)10/h1-4,8H,(H,9,10)","sStandardInChIKey":"YGSDEFSMJLZEOE-UHFFFAOYSA-N"},{"Sample":[{"tml_elements":["nSampleNm","eSource","purity"],"purity":[{"nStep":1,"tml_elements":["nStep","nUnknownPerCent","nUnknownPerCentDigits","eAnalMeth"],"eAnalMeth":["Stated by supplier"],"nUnknownPerCentDigits":3,"nUnknownPerCent":99.5}],"nSampleNm":1,"eSource":"Commercial source"}],"tml_elements":["RegNum","sStandardInChI","sStandardInChIKey","sCommonName","sFormulaMolec","Sample"],"sCommonName":["8-hydroxyquinoline","8-quinolinol","phenopyridine","quinoline, 8-hydroxy-","quinophenol"],"sFormulaMolec":"C9H7NO","sStandardInChIKey":"MCJGNVYPOGVAJF-UHFFFAOYSA-N","RegNum":{"nOrgNum":6,"tml_elements":["nOrgNum"]},"sStandardInChI":"InChI=1S/C9H7NO/c11-8-5-1-3-7-4-2-6-10-9(7)8/h1-6,11H"}],"THERMOML_MD5_CHECKSUM":"a6220dbd9d75c8e8d500881e327604a8"}