{"tml_elements":["Version","Citation","Compound","PureOrMixtureData"],"PureOrMixtureData":[{"sContributor":"TRC","Component":[{"tml_elements":["RegNum","nSampleNm"],"RegNum":{"tml_elements":["nOrgNum"],"nOrgNum":1},"nSampleNm":1}],"PhaseID":[{"ePhase":"Crystal","tml_elements":["ePhase"]},{"ePhase":"Liquid","tml_elements":["ePhase"]},{"tml_elements":["ePhase"],"ePhase":"Air at 1 atmosphere"}],"tml_elements":["nPureOrMixtureDataNumber","Component","eExpPurpose","sCompiler","sContributor","dateDateAdded","Property","PhaseID","NumValues"],"NumValues":[{"VariableValue":[],"PropertyValue":[{"nPropValue":514.15,"CombinedUncertainty":{"nCombUncertAssessNum":1,"tml_elements":["nCombUncertAssessNum","nCombExpandUncertValue"],"nCombExpandUncertValue":10.2},"nPropDigits":5,"nPropNumber":1,"tml_elements":["nPropNumber","nPropValue","nPropDigits","CombinedUncertainty"]}],"tml_elements":["PropertyValue"]}],"sCompiler":"VVD","dateDateAdded":"10/17/2005","nPureOrMixtureDataNumber":1,"Property":[{"ePresentation":"Direct value, X","tml_elements":["nPropNumber","Property-MethodID","PropPhaseID","ePresentation","CombinedUncertainty"],"PropPhaseID":{"tml_elements":["ePropPhase"],"ePropPhase":"Crystal"},"Property-MethodID":{"tml_elements":["PropertyGroup"],"PropertyGroup":{"tml_elements":["PhaseTransition"],"PhaseTransition":{"tml_elements":["ePropName","sMethodName"],"sMethodName":"DTA:corrimp","ePropName":"Normal melting temperature, K"}}},"nPropNumber":1,"CombinedUncertainty":{"tml_elements":["nCombUncertAssessNum","sCombUncertEvaluator","eCombUncertEvalMethod","nCombUncertLevOfConfid"],"nCombUncertLevOfConfid":95,"eCombUncertEvalMethod":"Propagation of evaluated standard uncertainties","nCombUncertAssessNum":1,"sCombUncertEvaluator":"Data file compiler"}}],"eExpPurpose":"Principal objective of the work"},{"eExpPurpose":"Principal objective of the work","Property":[{"CombinedUncertainty":{"eCombUncertEvalMethod":"Propagation of evaluated standard uncertainties","nCombUncertLevOfConfid":95,"tml_elements":["nCombUncertAssessNum","sCombUncertEvaluator","eCombUncertEvalMethod","nCombUncertLevOfConfid"],"sCombUncertEvaluator":"Data file compiler","nCombUncertAssessNum":1},"tml_elements":["nPropNumber","Property-MethodID","PropPhaseID","ePresentation","CombinedUncertainty"],"ePresentation":"Direct value, X","nPropNumber":1,"PropPhaseID":{"ePropPhase":"Crystal","tml_elements":["ePropPhase"]},"Property-MethodID":{"tml_elements":["PropertyGroup"],"PropertyGroup":{"PhaseTransition":{"tml_elements":["ePropName","sMethodName"],"sMethodName":"DTA:corrimp","ePropName":"Normal melting temperature, K"},"tml_elements":["PhaseTransition"]}}}],"sCompiler":"VVD","nPureOrMixtureDataNumber":2,"dateDateAdded":"10/17/2005","NumValues":[{"VariableValue":[],"PropertyValue":[{"nPropDigits":5,"nPropNumber":1,"tml_elements":["nPropNumber","nPropValue","nPropDigits","CombinedUncertainty"],"nPropValue":569.65,"CombinedUncertainty":{"tml_elements":["nCombUncertAssessNum","nCombExpandUncertValue"],"nCombExpandUncertValue":10.2,"nCombUncertAssessNum":1}}],"tml_elements":["PropertyValue"]}],"PhaseID":[{"ePhase":"Crystal","tml_elements":["ePhase"]},{"tml_elements":["ePhase"],"ePhase":"Liquid"},{"tml_elements":["ePhase"],"ePhase":"Air at 1 atmosphere"}],"tml_elements":["nPureOrMixtureDataNumber","Component","eExpPurpose","sCompiler","sContributor","dateDateAdded","Property","PhaseID","NumValues"],"Component":[{"tml_elements":["RegNum","nSampleNm"],"RegNum":{"nOrgNum":2,"tml_elements":["nOrgNum"]},"nSampleNm":1}],"sContributor":"TRC"}],"THERMOML_MD5_CHECKSUM":"1ce2c88b82454ce25ee8b113229e8cb9","Citation":{"sVol":"435","eType":"journal","sPage":"135-141","sPubName":"Thermochim. Acta","yrPubYr":"2005","dateCit":"2020-09-29","sIDNum":"2","sKeyword":["Melting temperatures","DSC at variable heating rates","Deaminative polycondensation","3,6-Diamino-9H-carbazole","3,6-Dinitro-9H-carbazole"],"sAuthor":["Maity, S. C.[Subhas Chandra]","Mal, D.[Dipakranjan]","Maiti, M. M.[Mrinal M.]"],"tml_elements":["TRCRefID","eType","eSourceType","sAuthor","sPubName","yrPubYr","dateCit","sTitle","sAbstract","sKeyword","sDOI","sIDNum","sVol","sPage"],"sDOI":"10.1016/j.tca.2005.05.013","sTitle":"On the melting temperatures of 3,6-diamino-9H-carbazole and 3,6-dinitro-9H-carbazole","sAbstract":"This article records the diversely reported melting temperatures of 3,6-diamino-9H-carbazole (DAC) and 3,6-dinitro-9H-carbazole (DNC), and reports a reinvestigation on their melting phenomena, and associated specific observations. A rationalization of these reports has been attempted on the basis of IR spectroscopic, X-ray diffraction, thermal response, solubility behavior, and differential scanning calorimetric data on DAC and DNC. The data indicate that an exothermic inter-molecular deaminative self-condensation involving N9 H and NH2 sets in prior to melting of DAC, which obscures the actual melting process. An extrapolated onset melting temperature of 241.0 .C and a peak temperature of 296.5 .C at zero heating rate have been assigned for DAC from DSC measurements. A possible structure of the polymeric self-condensation product is also presented. For DNC, a peak melting temperature of 296.5 +-1.8 .C, but no onset melting temperature could be assigned.","TRCRefID":{"yrYrPub":"2005","sAuthor2":"mal","sAuthor1":"mai","nAuthorn":"0","tml_elements":["yrYrPub","sAuthor1","sAuthor2","nAuthorn"]},"eSourceType":"Original"},"Compound":[{"tml_elements":["RegNum","sStandardInChI","sStandardInChIKey","sCommonName","sFormulaMolec","Sample"],"sCommonName":["3,6-diamino-9H-carbazole"],"Sample":[{"tml_elements":["nSampleNm","eSource","purity"],"purity":[{"nPurityMolDigits":2,"nStep":1,"nPurityMol":98,"tml_elements":["nStep","nPurityMol","nPurityMolDigits","eAnalMeth"],"eAnalMeth":["Estimated by the compiler"]}],"eSource":"Synthesized by the authors","nSampleNm":1}],"sFormulaMolec":"C12H11N3","sStandardInChI":"InChI=1S/C12H11N3/c13-7-1-3-11-9(5-7)10-6-8(14)2-4-12(10)15-11/h1-6,15H,13-14H2","RegNum":{"nOrgNum":1,"tml_elements":["nOrgNum"]},"sStandardInChIKey":"YCZUWQOJQGCZKG-UHFFFAOYSA-N"},{"tml_elements":["RegNum","sStandardInChI","sStandardInChIKey","sCommonName","sFormulaMolec","Sample"],"sCommonName":["3,6-dinitro-9H-carbazole","9H-carbazole, 3,6-dinitro-"],"Sample":[{"purity":[{"nPurityMol":98,"tml_elements":["nStep","nPurityMol","nPurityMolDigits","eAnalMeth"],"nStep":1,"nPurityMolDigits":2,"eAnalMeth":["Estimated by the compiler"]}],"tml_elements":["nSampleNm","eSource","purity"],"eSource":"Synthesized by the authors","nSampleNm":1}],"sFormulaMolec":"C12H7N3O4","RegNum":{"nOrgNum":2,"tml_elements":["nOrgNum"]},"sStandardInChI":"InChI=1S/C12H7N3O4/c16-14(17)7-1-3-11-9(5-7)10-6-8(15(18)19)2-4-12(10)13-11/h1-6,13H","sStandardInChIKey":"IARXLBTXILYASE-UHFFFAOYSA-N"}],"Version":{"tml_elements":["nVersionMajor","nVersionMinor"],"nVersionMinor":0,"nVersionMajor":2}}