{"Citation":{"sVol":"622","eType":"journal","sPage":"38-43","dateCit":"2020-09-29","sPubName":"Thermochim. Acta","yrPubYr":"2015","tml_elements":["TRCRefID","eType","eSourceType","sAuthor","sPubName","yrPubYr","dateCit","sTitle","sAbstract","sKeyword","sDOI","sVol","sPage"],"sKeyword":["Ionic liquid","Functionalization","Enthalpy of vaporization","Group contributions","Fluorinated compounds"],"sAuthor":["Zaitsau, D. H.[Dzmitry H.]","Yermalayeu, A. V.[Andrei V.]","Verevkin, S. P.[Sergey P.]","Bara, J. E.[Jason E.]","Wallace, D. A.[David A.]"],"sAbstract":"Molar vaporization enthalpies of fluoroalkyl-substituted imidazolium-based ionic liquids were derived from two concurring quartz crystal microbalance (QCM) and thermogravimetry (TGA) methods. For comparison, enthalpies of vaporization measured at elevated temperatures have been adjusted to the reference temperature 298 K and tested for consistency. It was found that vaporization enthalpies of fluorine substituted families are significantly higher compared to the analogous ILs with the alkyl- substituted cation. This is in agreement to molecular solvents, where fluorination typically increases vaporization enthalpy relative to hydrocarbon analogues. A useful group contribution for the incremental CF2 fragment in the alkyl chain was recommended for the quick estimation of vaporization enthalpies of various substituted IL cations (e.g., imidazolium, ammonium, pyridinium, etc.).","TRCRefID":{"yrYrPub":"2015","sAuthor2":"yer","sAuthor1":"zai","nAuthorn":"0","tml_elements":["yrYrPub","sAuthor1","sAuthor2","nAuthorn"]},"sTitle":"Structure-property relationships in ionic liquids: Chain length dependence of the vaporization enthalpies of imidazolium-based ionic liquids with fluorinated substituents","sDOI":"10.1016/j.tca.2015.04.021","eSourceType":"Original"},"Version":{"tml_elements":["nVersionMajor","nVersionMinor"],"nVersionMinor":0,"nVersionMajor":2},"Compound":[{"RegNum":{"nOrgNum":1,"tml_elements":["nOrgNum"]},"sStandardInChI":"InChI=1S/C8H10F5N2.C2F6NO4S2/c1-14-4-5-15(6-14)3-2-7(9,10)8(11,12)13;3-1(4,5)14(10,11)9-15(12,13)2(6,7)8/h4-6H,2-3H2,1H3;/q+1;-1","sStandardInChIKey":"CLVBQUCHWCPFND-UHFFFAOYSA-N","Sample":[{"purity":[{"nStep":1,"tml_elements":["nStep","ePurifMethod"],"ePurifMethod":["Dried by vacuum heating"]},{"nPurityMassDigits":2,"tml_elements":["nStep","nPurityMass","nPurityMassDigits","eAnalMeth"],"nStep":2,"eAnalMeth":["Estimated by the compiler"],"nPurityMass":99}],"tml_elements":["nSampleNm","eSource","purity"],"nSampleNm":1,"eSource":"Synthesized by the authors"}],"sCommonName":["1-methyl-3-(3,3,4,4,4-pentafluorobutyl)-1H-imidazolium bis((trifluoromethyl)sulfonyl)imide","1-methyl-3-(3,3,4,4,4-pentafluorobutyl)-1H-imidazolium 1,1,1-trifluoro-N-[(trifluoromethyl)sulfonyl]methanesulfonamide","1-methyl-3-(3,3,4,4,4-pentafluorobutyl)imidazolium bis((trifluoromethyl)sulfonyl)amide"],"tml_elements":["RegNum","sStandardInChI","sStandardInChIKey","sCommonName","sFormulaMolec","Sample"],"sFormulaMolec":"C10H10F11N3O4S2"},{"sStandardInChIKey":"IVQODHSYCBTSSC-UHFFFAOYSA-O","RegNum":{"nOrgNum":2,"tml_elements":["nOrgNum"]},"sStandardInChI":"InChI=1S/C10H11F9N2.C2F6NO4S2/c1-20-4-5-21(6-20)3-2-7(11,12)8(13,14)9(15,16)10(17,18)19;3-1(4,5)14(10,11)9-15(12,13)2(6,7)8/h4-5H,2-3,6H2,1H3;/q;-1/p+1","sFormulaMolec":"C12H12F15N3O4S2","tml_elements":["RegNum","sStandardInChI","sStandardInChIKey","sCommonName","sFormulaMolec","Sample"],"sCommonName":["1-methyl-3-(3,3,4,4,5,5,6,6,6-nonafluorohexyl)-1H-imidazolium 1,1,1-trifluoro-N-[(trifluoromethyl)sulfonyl]methanesulfonamide"],"Sample":[{"purity":[{"ePurifMethod":["Dried by vacuum heating"],"tml_elements":["nStep","ePurifMethod"],"nStep":1},{"nPurityMassDigits":2,"tml_elements":["nStep","nPurityMass","nPurityMassDigits","eAnalMeth"],"nStep":2,"eAnalMeth":["Estimated by the compiler"],"nPurityMass":99}],"tml_elements":["nSampleNm","eSource","purity"],"eSource":"Synthesized by the authors","nSampleNm":1}]},{"sFormulaMolec":"C14H10F19N3O4S2","tml_elements":["RegNum","sStandardInChI","sStandardInChIKey","sCommonName","sFormulaMolec","Sample"],"Sample":[{"nSampleNm":1,"eSource":"Synthesized by the authors","tml_elements":["nSampleNm","eSource","purity"],"purity":[{"tml_elements":["nStep","ePurifMethod"],"nStep":1,"ePurifMethod":["Dried by vacuum heating"]},{"eAnalMeth":["Estimated by the compiler"],"nPurityMass":99,"tml_elements":["nStep","nPurityMass","nPurityMassDigits","eAnalMeth"],"nPurityMassDigits":2,"nStep":2}]}],"sCommonName":["1-methyl-3-(3,3,4,4,5,5,6,6,7,7,8,8,8-tridecafluorooctyl)imidazolium bis(trifluoromethylsulfonyl)imide"],"RegNum":{"nOrgNum":3,"tml_elements":["nOrgNum"]},"sStandardInChI":"InChI=1S/C12H10F13N2.C2F6NO4S2/c1-26-4-5-27(6-26)3-2-7(13,14)8(15,16)9(17,18)10(19,20)11(21,22)12(23,24)25;3-1(4,5)14(10,11)9-15(12,13)2(6,7)8/h4-6H,2-3H2,1H3;/q+1;-1","sStandardInChIKey":"FOBHPPDDGZSJIJ-UHFFFAOYSA-N"},{"sStandardInChI":"InChI=1S/C14H10F17N2.C2F6NO4S2/c1-32-4-5-33(6-32)3-2-7(15,16)8(17,18)9(19,20)10(21,22)11(23,24)12(25,26)13(27,28)14(29,30)31;3-1(4,5)14(10,11)9-15(12,13)2(6,7)8/h4-6H,2-3H2,1H3;/q+1;-1","RegNum":{"nOrgNum":4,"tml_elements":["nOrgNum"]},"sStandardInChIKey":"FFHLPTQPGYXNIA-UHFFFAOYSA-N","sCommonName":["3-(3,3,4,4,5,5,6,6,7,7,8,8,9,9,10,10,10-heptadecafluorodecyl)-1-methyl-1H-imidazolium bis((trifluoromethyl)sulfonyl)imide","1-(3,3,4,4,5,5,6,6,7,7,8,8,9,9,10,10,10-heptadecafluorodecyl)-3-methylimidazolium bis((trifluoromethyl)sulfonyl)imide","3-(3,3,4,4,5,5,6,6,7,7,8,8,9,9,10,10,10-heptadecafluorodecyl)-1-methylimidazolium 1,1,1-trifluoro-N-[(trifluoromethyl)sulfonyl]methanesulfonamide","3-(3,3,4,4,5,5,6,6,7,7,8,8,9,9,10,10,10-heptadecafluorodecyl)-1-methylimidazolium bis((trifluoromethyl)sulfonyl)amide"],"tml_elements":["RegNum","sStandardInChI","sStandardInChIKey","sCommonName","sFormulaMolec","Sample"],"Sample":[{"eSource":"Synthesized by the authors","nSampleNm":1,"tml_elements":["nSampleNm","eSource","purity"],"purity":[{"tml_elements":["nStep","ePurifMethod"],"nStep":1,"ePurifMethod":["Dried by vacuum heating"]},{"nPurityMass":99,"eAnalMeth":["Estimated by the compiler"],"nStep":2,"tml_elements":["nStep","nPurityMass","nPurityMassDigits","eAnalMeth"],"nPurityMassDigits":2}]}],"sFormulaMolec":"C16H10F23N3O4S2"}],"THERMOML_MD5_CHECKSUM":"0e14820492af026ec83dcda2f9ed106b","PureOrMixtureData":[{"sContributor":"TRC","tml_elements":["nPureOrMixtureDataNumber","Component","eExpPurpose","sCompiler","sContributor","dateDateAdded","Property","PhaseID","Variable","NumValues"],"PhaseID":[{"ePhase":"Liquid","tml_elements":["ePhase"]},{"ePhase":"Gas","tml_elements":["ePhase"]}],"nPureOrMixtureDataNumber":1,"dateDateAdded":"2/2/2016","sCompiler":"AB","NumValues":[{"VariableValue":[{"nVarValue":370.1,"nVarNumber":1,"nVarDigits":4,"tml_elements":["nVarNumber","nVarValue","nVarDigits"]}],"PropertyValue":[{"nPropValue":130,"CombinedUncertainty":{"nCombExpandUncertValue":2.6,"tml_elements":["nCombUncertAssessNum","nCombExpandUncertValue"],"nCombUncertAssessNum":1},"tml_elements":["nPropNumber","nPropValue","nPropDigits","CombinedUncertainty"],"nPropDigits":4,"nPropNumber":1}],"tml_elements":["VariableValue","PropertyValue"]}],"eExpPurpose":"Principal objective of the work","Property":[{"Property-MethodID":{"PropertyGroup":{"tml_elements":["PhaseTransition"],"PhaseTransition":{"ePropName":"Molar enthalpy of vaporization or sublimation, kJ/mol","eMethodName":"Derived by Second law","tml_elements":["ePropName","eMethodName"]}},"tml_elements":["PropertyGroup"]},"CombinedUncertainty":{"nCombUncertAssessNum":1,"sCombUncertEvaluator":"Data file compiler","tml_elements":["nCombUncertAssessNum","sCombUncertEvaluator","eCombUncertEvalMethod","nCombUncertLevOfConfid"],"eCombUncertEvalMethod":"Propagation of evaluated standard uncertainties","nCombUncertLevOfConfid":95},"PropPhaseID":{"ePropPhase":"Liquid","tml_elements":["ePropPhase"]},"nPropNumber":1,"ePresentation":"Direct value, X","tml_elements":["nPropNumber","Property-MethodID","PropPhaseID","ePresentation","CombinedUncertainty"]}],"Variable":[{"tml_elements":["nVarNumber","VariableID","VarPhaseID"],"nVarNumber":1,"VarPhaseID":{"tml_elements":["eVarPhase"],"eVarPhase":"Liquid"},"VariableID":{"VariableType":{"eTemperature":"Temperature, K","tml_elements":["eTemperature"]},"tml_elements":["VariableType"]}}],"Component":[{"RegNum":{"nOrgNum":1,"tml_elements":["nOrgNum"]},"nSampleNm":1,"tml_elements":["RegNum","nSampleNm"]}]},{"Property":[{"CombinedUncertainty":{"eCombUncertEvalMethod":"Propagation of evaluated standard uncertainties","nCombUncertLevOfConfid":95,"tml_elements":["nCombUncertAssessNum","sCombUncertEvaluator","eCombUncertEvalMethod","nCombUncertLevOfConfid"],"sCombUncertEvaluator":"Data file compiler","nCombUncertAssessNum":1},"Property-MethodID":{"tml_elements":["PropertyGroup"],"PropertyGroup":{"PhaseTransition":{"ePropName":"Molar enthalpy of vaporization or sublimation, kJ/mol","sMethodName":"TGA","tml_elements":["ePropName","sMethodName"]},"tml_elements":["PhaseTransition"]}},"tml_elements":["nPropNumber","Property-MethodID","PropPhaseID","ePresentation","CombinedUncertainty"],"ePresentation":"Direct value, X","nPropNumber":1,"PropPhaseID":{"ePropPhase":"Liquid","tml_elements":["ePropPhase"]}}],"eExpPurpose":"Principal objective of the work","NumValues":[{"tml_elements":["VariableValue","PropertyValue"],"PropertyValue":[{"nPropDigits":4,"nPropNumber":1,"tml_elements":["nPropNumber","nPropValue","nPropDigits","CombinedUncertainty"],"nPropValue":113.8,"CombinedUncertainty":{"nCombUncertAssessNum":1,"tml_elements":["nCombUncertAssessNum","nCombExpandUncertValue"],"nCombExpandUncertValue":2.6}}],"VariableValue":[{"nVarNumber":1,"tml_elements":["nVarNumber","nVarValue","nVarDigits"],"nVarDigits":4,"nVarValue":527.7}]}],"sCompiler":"AB","dateDateAdded":"2/2/2016","nPureOrMixtureDataNumber":2,"Component":[{"nSampleNm":1,"RegNum":{"nOrgNum":1,"tml_elements":["nOrgNum"]},"tml_elements":["RegNum","nSampleNm"]}],"PhaseID":[{"tml_elements":["ePhase"],"ePhase":"Liquid"},{"tml_elements":["ePhase"],"ePhase":"Gas"}],"tml_elements":["nPureOrMixtureDataNumber","Component","eExpPurpose","sCompiler","sContributor","dateDateAdded","Property","PhaseID","Variable","NumValues"],"Variable":[{"VariableID":{"VariableType":{"tml_elements":["eTemperature"],"eTemperature":"Temperature, K"},"tml_elements":["VariableType"]},"nVarNumber":1,"VarPhaseID":{"tml_elements":["eVarPhase"],"eVarPhase":"Liquid"},"tml_elements":["nVarNumber","VariableID","VarPhaseID"]}],"sContributor":"TRC"},{"sContributor":"TRC","Variable":[{"VariableID":{"tml_elements":["VariableType"],"VariableType":{"tml_elements":["eTemperature"],"eTemperature":"Temperature, K"}},"nVarNumber":1,"VarPhaseID":{"tml_elements":["eVarPhase"],"eVarPhase":"Liquid"},"tml_elements":["nVarNumber","VariableID","VarPhaseID"]}],"tml_elements":["nPureOrMixtureDataNumber","Component","eExpPurpose","sCompiler","sContributor","dateDateAdded","Property","PhaseID","Variable","NumValues"],"PhaseID":[{"ePhase":"Liquid","tml_elements":["ePhase"]},{"tml_elements":["ePhase"],"ePhase":"Gas"}],"Component":[{"tml_elements":["RegNum","nSampleNm"],"RegNum":{"nOrgNum":2,"tml_elements":["nOrgNum"]},"nSampleNm":1}],"dateDateAdded":"2/2/2016","nPureOrMixtureDataNumber":3,"sCompiler":"AB","NumValues":[{"VariableValue":[{"nVarValue":371.1,"tml_elements":["nVarNumber","nVarValue","nVarDigits"],"nVarDigits":4,"nVarNumber":1}],"PropertyValue":[{"tml_elements":["nPropNumber","nPropValue","nPropDigits","CombinedUncertainty"],"nPropNumber":1,"nPropDigits":4,"CombinedUncertainty":{"nCombUncertAssessNum":1,"nCombExpandUncertValue":2.6,"tml_elements":["nCombUncertAssessNum","nCombExpandUncertValue"]},"nPropValue":137.6}],"tml_elements":["VariableValue","PropertyValue"]}],"Property":[{"CombinedUncertainty":{"eCombUncertEvalMethod":"Propagation of evaluated standard uncertainties","nCombUncertLevOfConfid":95,"tml_elements":["nCombUncertAssessNum","sCombUncertEvaluator","eCombUncertEvalMethod","nCombUncertLevOfConfid"],"sCombUncertEvaluator":"Data file compiler","nCombUncertAssessNum":1},"nPropNumber":1,"PropPhaseID":{"ePropPhase":"Liquid","tml_elements":["ePropPhase"]},"Property-MethodID":{"PropertyGroup":{"PhaseTransition":{"tml_elements":["ePropName","eMethodName"],"ePropName":"Molar enthalpy of vaporization or sublimation, kJ/mol","eMethodName":"Derived by Second law"},"tml_elements":["PhaseTransition"]},"tml_elements":["PropertyGroup"]},"tml_elements":["nPropNumber","Property-MethodID","PropPhaseID","ePresentation","CombinedUncertainty"],"ePresentation":"Direct value, X"}],"eExpPurpose":"Principal objective of the work"},{"Property":[{"nPropNumber":1,"PropPhaseID":{"tml_elements":["ePropPhase"],"ePropPhase":"Liquid"},"Property-MethodID":{"tml_elements":["PropertyGroup"],"PropertyGroup":{"PhaseTransition":{"ePropName":"Molar enthalpy of vaporization or sublimation, kJ/mol","sMethodName":"TGA","tml_elements":["ePropName","sMethodName"]},"tml_elements":["PhaseTransition"]}},"tml_elements":["nPropNumber","Property-MethodID","PropPhaseID","ePresentation","CombinedUncertainty"],"ePresentation":"Direct value, X","CombinedUncertainty":{"eCombUncertEvalMethod":"Propagation of evaluated standard uncertainties","nCombUncertLevOfConfid":95,"tml_elements":["nCombUncertAssessNum","sCombUncertEvaluator","eCombUncertEvalMethod","nCombUncertLevOfConfid"],"sCombUncertEvaluator":"Data file compiler","nCombUncertAssessNum":1}}],"eExpPurpose":"Principal objective of the work","NumValues":[{"tml_elements":["VariableValue","PropertyValue"],"PropertyValue":[{"CombinedUncertainty":{"tml_elements":["nCombUncertAssessNum","nCombExpandUncertValue"],"nCombExpandUncertValue":3,"nCombUncertAssessNum":1},"nPropValue":116.1,"tml_elements":["nPropNumber","nPropValue","nPropDigits","CombinedUncertainty"],"nPropNumber":1,"nPropDigits":4}],"VariableValue":[{"nVarValue":532.48,"nVarNumber":1,"tml_elements":["nVarNumber","nVarValue","nVarDigits"],"nVarDigits":5}]}],"dateDateAdded":"2/2/2016","nPureOrMixtureDataNumber":4,"sCompiler":"AB","Component":[{"tml_elements":["RegNum","nSampleNm"],"nSampleNm":1,"RegNum":{"nOrgNum":2,"tml_elements":["nOrgNum"]}}],"tml_elements":["nPureOrMixtureDataNumber","Component","eExpPurpose","sCompiler","sContributor","dateDateAdded","Property","PhaseID","Variable","NumValues"],"PhaseID":[{"ePhase":"Liquid","tml_elements":["ePhase"]},{"tml_elements":["ePhase"],"ePhase":"Gas"}],"sContributor":"TRC","Variable":[{"VariableID":{"tml_elements":["VariableType"],"VariableType":{"tml_elements":["eTemperature"],"eTemperature":"Temperature, K"}},"VarPhaseID":{"eVarPhase":"Liquid","tml_elements":["eVarPhase"]},"nVarNumber":1,"tml_elements":["nVarNumber","VariableID","VarPhaseID"]}]},{"tml_elements":["nPureOrMixtureDataNumber","Component","eExpPurpose","sCompiler","sContributor","dateDateAdded","Property","PhaseID","Variable","NumValues"],"PhaseID":[{"ePhase":"Liquid","tml_elements":["ePhase"]},{"ePhase":"Gas","tml_elements":["ePhase"]}],"Component":[{"tml_elements":["RegNum","nSampleNm"],"RegNum":{"tml_elements":["nOrgNum"],"nOrgNum":3},"nSampleNm":1}],"sContributor":"TRC","Variable":[{"VariableID":{"VariableType":{"tml_elements":["eTemperature"],"eTemperature":"Temperature, K"},"tml_elements":["VariableType"]},"VarPhaseID":{"tml_elements":["eVarPhase"],"eVarPhase":"Liquid"},"nVarNumber":1,"tml_elements":["nVarNumber","VariableID","VarPhaseID"]}],"eExpPurpose":"Principal objective of the work","Property":[{"CombinedUncertainty":{"sCombUncertEvaluator":"Data file compiler","nCombUncertAssessNum":1,"nCombUncertLevOfConfid":95,"eCombUncertEvalMethod":"Propagation of evaluated standard uncertainties","tml_elements":["nCombUncertAssessNum","sCombUncertEvaluator","eCombUncertEvalMethod","nCombUncertLevOfConfid"]},"ePresentation":"Direct value, X","tml_elements":["nPropNumber","Property-MethodID","PropPhaseID","ePresentation","CombinedUncertainty"],"PropPhaseID":{"ePropPhase":"Liquid","tml_elements":["ePropPhase"]},"Property-MethodID":{"tml_elements":["PropertyGroup"],"PropertyGroup":{"PhaseTransition":{"ePropName":"Molar enthalpy of vaporization or sublimation, kJ/mol","eMethodName":"Derived by Second law","tml_elements":["ePropName","eMethodName"]},"tml_elements":["PhaseTransition"]}},"nPropNumber":1}],"nPureOrMixtureDataNumber":5,"dateDateAdded":"2/2/2016","sCompiler":"AB","NumValues":[{"VariableValue":[{"nVarValue":376.2,"nVarDigits":4,"tml_elements":["nVarNumber","nVarValue","nVarDigits"],"nVarNumber":1}],"tml_elements":["VariableValue","PropertyValue"],"PropertyValue":[{"tml_elements":["nPropNumber","nPropValue","nPropDigits","CombinedUncertainty"],"nPropNumber":1,"nPropDigits":4,"CombinedUncertainty":{"nCombUncertAssessNum":1,"tml_elements":["nCombUncertAssessNum","nCombExpandUncertValue"],"nCombExpandUncertValue":2.6},"nPropValue":142.5}]}]},{"Property":[{"CombinedUncertainty":{"nCombUncertAssessNum":1,"sCombUncertEvaluator":"Data file compiler","tml_elements":["nCombUncertAssessNum","sCombUncertEvaluator","eCombUncertEvalMethod","nCombUncertLevOfConfid"],"nCombUncertLevOfConfid":95,"eCombUncertEvalMethod":"Propagation of evaluated standard uncertainties"},"ePresentation":"Direct value, X","tml_elements":["nPropNumber","Property-MethodID","PropPhaseID","ePresentation","CombinedUncertainty"],"Property-MethodID":{"PropertyGroup":{"tml_elements":["PhaseTransition"],"PhaseTransition":{"tml_elements":["ePropName","sMethodName"],"sMethodName":"TGA","ePropName":"Molar enthalpy of vaporization or sublimation, kJ/mol"}},"tml_elements":["PropertyGroup"]},"PropPhaseID":{"ePropPhase":"Liquid","tml_elements":["ePropPhase"]},"nPropNumber":1}],"eExpPurpose":"Principal objective of the work","sCompiler":"AB","nPureOrMixtureDataNumber":6,"dateDateAdded":"2/2/2016","NumValues":[{"VariableValue":[{"nVarValue":532.3,"nVarDigits":4,"tml_elements":["nVarNumber","nVarValue","nVarDigits"],"nVarNumber":1}],"tml_elements":["VariableValue","PropertyValue"],"PropertyValue":[{"nPropValue":125.9,"CombinedUncertainty":{"nCombUncertAssessNum":1,"nCombExpandUncertValue":2.8,"tml_elements":["nCombUncertAssessNum","nCombExpandUncertValue"]},"tml_elements":["nPropNumber","nPropValue","nPropDigits","CombinedUncertainty"],"nPropNumber":1,"nPropDigits":4}]}],"PhaseID":[{"tml_elements":["ePhase"],"ePhase":"Liquid"},{"ePhase":"Gas","tml_elements":["ePhase"]}],"tml_elements":["nPureOrMixtureDataNumber","Component","eExpPurpose","sCompiler","sContributor","dateDateAdded","Property","PhaseID","Variable","NumValues"],"Component":[{"tml_elements":["RegNum","nSampleNm"],"nSampleNm":1,"RegNum":{"tml_elements":["nOrgNum"],"nOrgNum":3}}],"Variable":[{"tml_elements":["nVarNumber","VariableID","VarPhaseID"],"VarPhaseID":{"tml_elements":["eVarPhase"],"eVarPhase":"Liquid"},"nVarNumber":1,"VariableID":{"VariableType":{"eTemperature":"Temperature, K","tml_elements":["eTemperature"]},"tml_elements":["VariableType"]}}],"sContributor":"TRC"},{"sContributor":"TRC","Variable":[{"VariableID":{"tml_elements":["VariableType"],"VariableType":{"tml_elements":["eTemperature"],"eTemperature":"Temperature, K"}},"tml_elements":["nVarNumber","VariableID","VarPhaseID"],"nVarNumber":1,"VarPhaseID":{"eVarPhase":"Liquid","tml_elements":["eVarPhase"]}}],"tml_elements":["nPureOrMixtureDataNumber","Component","eExpPurpose","sCompiler","sContributor","dateDateAdded","Property","PhaseID","Variable","NumValues"],"PhaseID":[{"ePhase":"Liquid","tml_elements":["ePhase"]},{"ePhase":"Gas","tml_elements":["ePhase"]}],"Component":[{"RegNum":{"tml_elements":["nOrgNum"],"nOrgNum":4},"nSampleNm":1,"tml_elements":["RegNum","nSampleNm"]}],"nPureOrMixtureDataNumber":7,"dateDateAdded":"2/2/2016","sCompiler":"AB","NumValues":[{"VariableValue":[{"nVarNumber":1,"tml_elements":["nVarNumber","nVarValue","nVarDigits"],"nVarDigits":4,"nVarValue":381.4}],"tml_elements":["VariableValue","PropertyValue"],"PropertyValue":[{"tml_elements":["nPropNumber","nPropValue","nPropDigits","CombinedUncertainty"],"nPropNumber":1,"nPropDigits":4,"CombinedUncertainty":{"nCombUncertAssessNum":1,"tml_elements":["nCombUncertAssessNum","nCombExpandUncertValue"],"nCombExpandUncertValue":2.7},"nPropValue":148.1}]}],"eExpPurpose":"Principal objective of the work","Property":[{"CombinedUncertainty":{"sCombUncertEvaluator":"Data file compiler","nCombUncertAssessNum":1,"nCombUncertLevOfConfid":95,"eCombUncertEvalMethod":"Propagation of evaluated standard uncertainties","tml_elements":["nCombUncertAssessNum","sCombUncertEvaluator","eCombUncertEvalMethod","nCombUncertLevOfConfid"]},"Property-MethodID":{"tml_elements":["PropertyGroup"],"PropertyGroup":{"tml_elements":["PhaseTransition"],"PhaseTransition":{"tml_elements":["ePropName","eMethodName"],"eMethodName":"Derived by Second law","ePropName":"Molar enthalpy of vaporization or sublimation, kJ/mol"}}},"nPropNumber":1,"PropPhaseID":{"ePropPhase":"Liquid","tml_elements":["ePropPhase"]},"tml_elements":["nPropNumber","Property-MethodID","PropPhaseID","ePresentation","CombinedUncertainty"],"ePresentation":"Direct value, X"}]},{"sContributor":"TRC","Variable":[{"VariableID":{"VariableType":{"eTemperature":"Temperature, K","tml_elements":["eTemperature"]},"tml_elements":["VariableType"]},"VarPhaseID":{"tml_elements":["eVarPhase"],"eVarPhase":"Liquid"},"nVarNumber":1,"tml_elements":["nVarNumber","VariableID","VarPhaseID"]}],"tml_elements":["nPureOrMixtureDataNumber","Component","eExpPurpose","sCompiler","sContributor","dateDateAdded","Property","PhaseID","Variable","NumValues"],"PhaseID":[{"ePhase":"Liquid","tml_elements":["ePhase"]},{"ePhase":"Gas","tml_elements":["ePhase"]}],"Component":[{"tml_elements":["RegNum","nSampleNm"],"RegNum":{"nOrgNum":4,"tml_elements":["nOrgNum"]},"nSampleNm":1}],"dateDateAdded":"2/2/2016","nPureOrMixtureDataNumber":8,"sCompiler":"AB","NumValues":[{"VariableValue":[{"nVarValue":531.8,"nVarNumber":1,"nVarDigits":4,"tml_elements":["nVarNumber","nVarValue","nVarDigits"]}],"PropertyValue":[{"CombinedUncertainty":{"nCombUncertAssessNum":1,"nCombExpandUncertValue":2.8,"tml_elements":["nCombUncertAssessNum","nCombExpandUncertValue"]},"nPropValue":127.7,"nPropDigits":4,"nPropNumber":1,"tml_elements":["nPropNumber","nPropValue","nPropDigits","CombinedUncertainty"]}],"tml_elements":["VariableValue","PropertyValue"]}],"eExpPurpose":"Principal objective of the work","Property":[{"Property-MethodID":{"PropertyGroup":{"tml_elements":["PhaseTransition"],"PhaseTransition":{"tml_elements":["ePropName","sMethodName"],"ePropName":"Molar enthalpy of vaporization or sublimation, kJ/mol","sMethodName":"TGA"}},"tml_elements":["PropertyGroup"]},"CombinedUncertainty":{"tml_elements":["nCombUncertAssessNum","sCombUncertEvaluator","eCombUncertEvalMethod","nCombUncertLevOfConfid"],"nCombUncertLevOfConfid":95,"eCombUncertEvalMethod":"Propagation of evaluated standard uncertainties","nCombUncertAssessNum":1,"sCombUncertEvaluator":"Data file compiler"},"tml_elements":["nPropNumber","Property-MethodID","PropPhaseID","ePresentation","CombinedUncertainty"],"ePresentation":"Direct value, X","nPropNumber":1,"PropPhaseID":{"tml_elements":["ePropPhase"],"ePropPhase":"Liquid"}}]}],"tml_elements":["Version","Citation","Compound","PureOrMixtureData"]}