{"PureOrMixtureData":[{"sContributor":"TRC","Component":[{"tml_elements":["RegNum","nSampleNm"],"nSampleNm":1,"RegNum":{"nOrgNum":1,"tml_elements":["nOrgNum"]}}],"PhaseID":[{"tml_elements":["ePhase"],"ePhase":"Crystal"},{"tml_elements":["ePhase"],"ePhase":"Liquid"},{"ePhase":"Air at 1 atmosphere","tml_elements":["ePhase"]}],"tml_elements":["nPureOrMixtureDataNumber","Component","eExpPurpose","sCompiler","sContributor","dateDateAdded","Property","PhaseID","NumValues"],"NumValues":[{"tml_elements":["PropertyValue"],"PropertyValue":[{"nPropDigits":3,"nPropNumber":1,"tml_elements":["nPropNumber","nPropValue","nPropDigits","CombinedUncertainty"],"CombinedUncertainty":{"nCombUncertAssessNum":1,"tml_elements":["nCombUncertAssessNum","nCombExpandUncertValue"],"nCombExpandUncertValue":0.4},"nPropValue":332.15}],"VariableValue":[]}],"sCompiler":"AB","nPureOrMixtureDataNumber":1,"dateDateAdded":"5/16/2020","Property":[{"CombinedUncertainty":{"sCombUncertEvaluator":"Data file compiler","nCombUncertAssessNum":1,"nCombUncertLevOfConfid":95,"eCombUncertEvalMethod":"Propagation of evaluated standard uncertainties","tml_elements":["nCombUncertAssessNum","sCombUncertEvaluator","eCombUncertEvalMethod","nCombUncertLevOfConfid"]},"PropPhaseID":{"tml_elements":["ePropPhase"],"ePropPhase":"Crystal"},"Property-MethodID":{"PropertyGroup":{"tml_elements":["PhaseTransition"],"PhaseTransition":{"tml_elements":["ePropName","sMethodName"],"sMethodName":"DTA","ePropName":"Normal melting temperature, K"}},"tml_elements":["PropertyGroup"]},"nPropNumber":1,"ePresentation":"Direct value, X","tml_elements":["nPropNumber","Property-MethodID","PropPhaseID","ePresentation","CombinedUncertainty"]}],"eExpPurpose":"Principal objective of the work"},{"sContributor":"TRC","Component":[{"tml_elements":["RegNum","nSampleNm"],"RegNum":{"nOrgNum":1,"tml_elements":["nOrgNum"]},"nSampleNm":1}],"PhaseID":[{"ePhase":"Crystal","tml_elements":["ePhase"]},{"tml_elements":["ePhase"],"ePhase":"Liquid"},{"ePhase":"Air at 1 atmosphere","tml_elements":["ePhase"]}],"tml_elements":["nPureOrMixtureDataNumber","Component","eExpPurpose","sCompiler","sContributor","dateDateAdded","Property","PhaseID","NumValues"],"NumValues":[{"PropertyValue":[{"CombinedUncertainty":{"nCombUncertAssessNum":1,"nCombExpandUncertValue":1.9,"tml_elements":["nCombUncertAssessNum","nCombExpandUncertValue"]},"nPropValue":28.3,"nPropNumber":1,"nPropDigits":3,"tml_elements":["nPropNumber","nPropValue","nPropDigits","CombinedUncertainty"]}],"tml_elements":["PropertyValue"],"VariableValue":[]}],"sCompiler":"AB","dateDateAdded":"5/16/2020","nPureOrMixtureDataNumber":2,"eExpPurpose":"Principal objective of the work","Property":[{"CombinedUncertainty":{"tml_elements":["nCombUncertAssessNum","sCombUncertEvaluator","eCombUncertEvalMethod","nCombUncertLevOfConfid"],"eCombUncertEvalMethod":"Propagation of evaluated standard uncertainties","nCombUncertLevOfConfid":95,"nCombUncertAssessNum":1,"sCombUncertEvaluator":"Data file compiler"},"Property-MethodID":{"PropertyGroup":{"tml_elements":["PhaseTransition"],"PhaseTransition":{"tml_elements":["ePropName","sMethodName"],"sMethodName":"DSC","ePropName":"Molar enthalpy of transition or fusion, kJ/mol"}},"tml_elements":["PropertyGroup"]},"nPropNumber":1,"PropPhaseID":{"ePropPhase":"Crystal","tml_elements":["ePropPhase"]},"tml_elements":["nPropNumber","Property-MethodID","PropPhaseID","ePresentation","CombinedUncertainty"],"ePresentation":"Direct value, X"}]},{"eExpPurpose":"Principal objective of the work","Property":[{"nPropNumber":1,"PropPhaseID":{"ePropPhase":"Glass","tml_elements":["ePropPhase"]},"Property-MethodID":{"PropertyGroup":{"PhaseTransition":{"sMethodName":"DSC","ePropName":"Triple point temperature, K","tml_elements":["ePropName","sMethodName"]},"tml_elements":["PhaseTransition"]},"tml_elements":["PropertyGroup"]},"tml_elements":["nPropNumber","Property-MethodID","PropPhaseID","ePresentation","CombinedUncertainty"],"ePresentation":"Direct value, X","CombinedUncertainty":{"nCombUncertAssessNum":1,"sCombUncertEvaluator":"Data file compiler","tml_elements":["nCombUncertAssessNum","sCombUncertEvaluator","eCombUncertEvalMethod","nCombUncertLevOfConfid"],"nCombUncertLevOfConfid":95,"eCombUncertEvalMethod":"Propagation of evaluated standard uncertainties"}}],"NumValues":[{"PropertyValue":[{"tml_elements":["nPropNumber","nPropValue","nPropDigits","CombinedUncertainty"],"nPropNumber":1,"nPropDigits":2,"nPropValue":241.15,"CombinedUncertainty":{"tml_elements":["nCombUncertAssessNum","nCombExpandUncertValue"],"nCombExpandUncertValue":1,"nCombUncertAssessNum":1}}],"tml_elements":["PropertyValue"],"VariableValue":[]}],"dateDateAdded":"5/16/2020","nPureOrMixtureDataNumber":3,"sCompiler":"AB","Component":[{"tml_elements":["RegNum","nSampleNm"],"nSampleNm":1,"RegNum":{"nOrgNum":1,"tml_elements":["nOrgNum"]}}],"tml_elements":["nPureOrMixtureDataNumber","Component","eExpPurpose","sCompiler","sContributor","dateDateAdded","Property","PhaseID","NumValues"],"PhaseID":[{"tml_elements":["ePhase"],"ePhase":"Glass"},{"tml_elements":["ePhase"],"ePhase":"Liquid"},{"tml_elements":["ePhase"],"ePhase":"Air at 1 atmosphere"}],"sContributor":"TRC"},{"sContributor":"TRC","Component":[{"tml_elements":["RegNum","nSampleNm"],"nSampleNm":1,"RegNum":{"nOrgNum":1,"tml_elements":["nOrgNum"]}}],"PhaseID":[{"tml_elements":["ePhase"],"ePhase":"Metastable crystal"},{"ePhase":"Liquid","tml_elements":["ePhase"]},{"tml_elements":["ePhase"],"ePhase":"Air at 1 atmosphere"}],"tml_elements":["nPureOrMixtureDataNumber","Component","eExpPurpose","sCompiler","sContributor","dateDateAdded","Property","PhaseID","NumValues"],"NumValues":[{"VariableValue":[],"PropertyValue":[{"tml_elements":["nPropNumber","nPropValue","nPropDigits","CombinedUncertainty"],"nPropNumber":1,"nPropDigits":3,"nPropValue":331.15,"CombinedUncertainty":{"nCombUncertAssessNum":1,"tml_elements":["nCombUncertAssessNum","nCombExpandUncertValue"],"nCombExpandUncertValue":0.4}}],"tml_elements":["PropertyValue"]}],"sCompiler":"AB","dateDateAdded":"5/16/2020","nPureOrMixtureDataNumber":4,"Property":[{"CombinedUncertainty":{"nCombUncertLevOfConfid":95,"eCombUncertEvalMethod":"Propagation of evaluated standard uncertainties","tml_elements":["nCombUncertAssessNum","sCombUncertEvaluator","eCombUncertEvalMethod","nCombUncertLevOfConfid"],"sCombUncertEvaluator":"Data file compiler","nCombUncertAssessNum":1},"nPropNumber":1,"PropPhaseID":{"tml_elements":["ePropPhase"],"ePropPhase":"Metastable crystal"},"Property-MethodID":{"PropertyGroup":{"PhaseTransition":{"ePropName":"Normal melting temperature, K","sMethodName":"DTA","tml_elements":["ePropName","sMethodName"]},"tml_elements":["PhaseTransition"]},"tml_elements":["PropertyGroup"]},"tml_elements":["nPropNumber","Property-MethodID","PropPhaseID","ePresentation","CombinedUncertainty"],"ePresentation":"Direct value, X"}],"eExpPurpose":"Principal objective of the work"},{"sCompiler":"AB","nPureOrMixtureDataNumber":5,"dateDateAdded":"5/16/2020","NumValues":[{"VariableValue":[],"PropertyValue":[{"nPropDigits":3,"nPropNumber":1,"tml_elements":["nPropNumber","nPropValue","nPropDigits","CombinedUncertainty"],"nPropValue":25.9,"CombinedUncertainty":{"nCombExpandUncertValue":2.1,"tml_elements":["nCombUncertAssessNum","nCombExpandUncertValue"],"nCombUncertAssessNum":1}}],"tml_elements":["PropertyValue"]}],"Property":[{"Property-MethodID":{"PropertyGroup":{"PhaseTransition":{"sMethodName":"DSC","ePropName":"Molar enthalpy of transition or fusion, kJ/mol","tml_elements":["ePropName","sMethodName"]},"tml_elements":["PhaseTransition"]},"tml_elements":["PropertyGroup"]},"CombinedUncertainty":{"tml_elements":["nCombUncertAssessNum","sCombUncertEvaluator","eCombUncertEvalMethod","nCombUncertLevOfConfid"],"nCombUncertLevOfConfid":95,"eCombUncertEvalMethod":"Propagation of evaluated standard uncertainties","nCombUncertAssessNum":1,"sCombUncertEvaluator":"Data file compiler"},"PropPhaseID":{"ePropPhase":"Metastable crystal","tml_elements":["ePropPhase"]},"nPropNumber":1,"ePresentation":"Direct value, X","tml_elements":["nPropNumber","Property-MethodID","PropPhaseID","ePresentation","CombinedUncertainty"]}],"eExpPurpose":"Principal objective of the work","sContributor":"TRC","PhaseID":[{"tml_elements":["ePhase"],"ePhase":"Metastable crystal"},{"tml_elements":["ePhase"],"ePhase":"Liquid"},{"ePhase":"Air at 1 atmosphere","tml_elements":["ePhase"]}],"tml_elements":["nPureOrMixtureDataNumber","Component","eExpPurpose","sCompiler","sContributor","dateDateAdded","Property","PhaseID","NumValues"],"Component":[{"tml_elements":["RegNum","nSampleNm"],"RegNum":{"tml_elements":["nOrgNum"],"nOrgNum":1},"nSampleNm":1}]}],"tml_elements":["Version","Citation","Compound","PureOrMixtureData"],"Compound":[{"RegNum":{"nOrgNum":1,"tml_elements":["nOrgNum"]},"sStandardInChI":"InChI=1S/C15H22O3/c1-11-6-7-12(2)13(10-11)18-9-5-8-15(3,4)14(16)17/h6-7,10H,5,8-9H2,1-4H3,(H,16,17)","sStandardInChIKey":"HEMJJKBWTPKOJG-UHFFFAOYSA-N","Sample":[{"eSource":"Commercial source","nSampleNm":1,"tml_elements":["nSampleNm","eSource","purity"],"purity":[{"eAnalMeth":["Stated by supplier"],"nStep":1,"tml_elements":["nStep","nUnknownPerCent","nUnknownPerCentDigits","eAnalMeth"],"nUnknownPerCentDigits":3,"nUnknownPerCent":98.5}]}],"tml_elements":["RegNum","sStandardInChI","sStandardInChIKey","sCommonName","sFormulaMolec","Sample"],"sCommonName":["gemfibrozil"],"sFormulaMolec":"C15H22O3"}],"THERMOML_MD5_CHECKSUM":"2c5a6c1139bec6459560d051d2477e26","Version":{"nVersionMinor":0,"nVersionMajor":2,"tml_elements":["nVersionMajor","nVersionMinor"]},"Citation":{"eSourceType":"Original","sDOI":"10.1016/j.tca.2019.03.026","sTitle":"Polymorphism of gemfibrozil: Investigation by thermal and spectroscopic methods","TRCRefID":{"yrYrPub":"2019","sAuthor2":"ban","sAuthor1":"hol","tml_elements":["yrYrPub","sAuthor1","sAuthor2","nAuthorn"],"nAuthorn":"0"},"sAbstract":"The knowledge of polymorphism of active pharmaceutical ingredient is relevant in the pharmaceutical field. In this work, a multidisciplinary approach involving differential scanning calorimetry, polarized light thermal microscopy, X-ray powder diffraction and attenuated total reflectance infrared spectroscopy was used to investigate polymorphism of gemfibrozil (GEM), an important fibric acid derivative, in melting cooling/heating cycles. An amorphous phase, Tg=-34 deg C, and two monotropic crystalline polymorphs with very close melting temperatures, form I, Tfus,I=59.0 deg C, and form II, Tfus,II=58.0 deg C, were identified, being form I the stable phase. In some experiments the forms were obtained concomitantly. The crystallization process seems to be dependent on molten liquid memory. Thereby, this effect could be due to low molecular mobility in the liquid state resulting from the relatively long carbon chain structure of GEM.","sKeyword":["Polymorphism","Gemfibrozil","Thermal analysis","Memory effect"],"sAuthor":["Holanda, B. B.C.[Bruno B.C.]","Bannach, G.[Gilbert]","Silva, M. R.[M. Ramos]","Eusebio, M. E. S.[M. Ermelinda S.]","Castro, R. A.E.[Ricardo A.E.]"],"tml_elements":["TRCRefID","eType","eSourceType","sAuthor","sPubName","yrPubYr","dateCit","sTitle","sAbstract","sKeyword","sDOI","sVol","sPage"],"yrPubYr":"2019","sPubName":"Thermochim. Acta","dateCit":"2020-09-29","sPage":"113-118","eType":"journal","sVol":"675"}}