{"tml_elements":["Version","Citation","Compound","PureOrMixtureData"],"PureOrMixtureData":[{"Property":[{"ePresentation":"Direct value, X","tml_elements":["nPropNumber","Property-MethodID","PropPhaseID","ePresentation","CombinedUncertainty"],"PropPhaseID":{"tml_elements":["ePropPhase"],"ePropPhase":"Crystal"},"nPropNumber":1,"Property-MethodID":{"PropertyGroup":{"PhaseTransition":{"tml_elements":["ePropName","sMethodName"],"sMethodName":"DTA","ePropName":"Normal melting temperature, K"},"tml_elements":["PhaseTransition"]},"tml_elements":["PropertyGroup"]},"CombinedUncertainty":{"nCombUncertLevOfConfid":95,"eCombUncertEvalMethod":"Propagation of evaluated standard uncertainties","tml_elements":["nCombUncertAssessNum","sCombUncertEvaluator","eCombUncertEvalMethod","nCombUncertLevOfConfid"],"sCombUncertEvaluator":"Data file compiler","nCombUncertAssessNum":1}}],"eExpPurpose":"Principal objective of the work","NumValues":[{"VariableValue":[],"PropertyValue":[{"CombinedUncertainty":{"nCombUncertAssessNum":1,"nCombExpandUncertValue":0.5,"tml_elements":["nCombUncertAssessNum","nCombExpandUncertValue"]},"nPropValue":417.35,"tml_elements":["nPropNumber","nPropValue","nPropDigits","CombinedUncertainty"],"nPropDigits":4,"nPropNumber":1}],"tml_elements":["PropertyValue"]}],"sCompiler":"AB","dateDateAdded":"11/28/2014","nPureOrMixtureDataNumber":1,"Component":[{"RegNum":{"nOrgNum":1,"tml_elements":["nOrgNum"]},"nSampleNm":1,"tml_elements":["RegNum","nSampleNm"]}],"PhaseID":[{"ePhase":"Crystal","tml_elements":["ePhase"]},{"ePhase":"Liquid","tml_elements":["ePhase"]},{"tml_elements":["ePhase"],"ePhase":"Air at 1 atmosphere"}],"tml_elements":["nPureOrMixtureDataNumber","Component","eExpPurpose","sCompiler","sContributor","dateDateAdded","Property","PhaseID","NumValues"],"sContributor":"TRC"},{"sContributor":"TRC","PhaseID":[{"ePhase":"Crystal","tml_elements":["ePhase"]},{"ePhase":"Liquid","tml_elements":["ePhase"]},{"ePhase":"Air at 1 atmosphere","tml_elements":["ePhase"]}],"tml_elements":["nPureOrMixtureDataNumber","Component","eExpPurpose","sCompiler","sContributor","dateDateAdded","Property","PhaseID","NumValues"],"Component":[{"RegNum":{"nOrgNum":1,"tml_elements":["nOrgNum"]},"nSampleNm":1,"tml_elements":["RegNum","nSampleNm"]}],"sCompiler":"AB","nPureOrMixtureDataNumber":2,"dateDateAdded":"11/28/2014","NumValues":[{"VariableValue":[],"PropertyValue":[{"nPropValue":14.7,"CombinedUncertainty":{"tml_elements":["nCombUncertAssessNum","nCombExpandUncertValue"],"nCombExpandUncertValue":0.6,"nCombUncertAssessNum":1},"nPropDigits":3,"nPropNumber":1,"tml_elements":["nPropNumber","nPropValue","nPropDigits","CombinedUncertainty"]}],"tml_elements":["PropertyValue"]}],"eExpPurpose":"Principal objective of the work","Property":[{"Property-MethodID":{"tml_elements":["PropertyGroup"],"PropertyGroup":{"tml_elements":["PhaseTransition"],"PhaseTransition":{"tml_elements":["ePropName","sMethodName"],"ePropName":"Molar enthalpy of transition or fusion, kJ/mol","sMethodName":"DSC"}}},"CombinedUncertainty":{"eCombUncertEvalMethod":"Propagation of evaluated standard uncertainties","nCombUncertLevOfConfid":95,"tml_elements":["nCombUncertAssessNum","sCombUncertEvaluator","eCombUncertEvalMethod","nCombUncertLevOfConfid"],"sCombUncertEvaluator":"Data file compiler","nCombUncertAssessNum":1},"PropPhaseID":{"ePropPhase":"Crystal","tml_elements":["ePropPhase"]},"nPropNumber":1,"ePresentation":"Direct value, X","tml_elements":["nPropNumber","Property-MethodID","PropPhaseID","ePresentation","CombinedUncertainty"]}]},{"eExpPurpose":"Principal objective of the work","Property":[{"tml_elements":["nPropNumber","Property-MethodID","PropPhaseID","ePresentation","CombinedUncertainty"],"ePresentation":"Direct value, X","nPropNumber":1,"PropPhaseID":{"ePropPhase":"Crystal 2","tml_elements":["ePropPhase"]},"Property-MethodID":{"tml_elements":["PropertyGroup"],"PropertyGroup":{"tml_elements":["PhaseTransition"],"PhaseTransition":{"ePropName":"Triple point temperature, K","sMethodName":"DTA","tml_elements":["ePropName","sMethodName"]}}},"CombinedUncertainty":{"eCombUncertEvalMethod":"Propagation of evaluated standard uncertainties","nCombUncertLevOfConfid":95,"tml_elements":["nCombUncertAssessNum","sCombUncertEvaluator","eCombUncertEvalMethod","nCombUncertLevOfConfid"],"sCombUncertEvaluator":"Data file compiler","nCombUncertAssessNum":1}}],"NumValues":[{"PropertyValue":[{"nPropDigits":4,"nPropNumber":1,"tml_elements":["nPropNumber","nPropValue","nPropDigits","CombinedUncertainty"],"CombinedUncertainty":{"nCombExpandUncertValue":0.5,"tml_elements":["nCombUncertAssessNum","nCombExpandUncertValue"],"nCombUncertAssessNum":1},"nPropValue":412.85}],"tml_elements":["PropertyValue"],"VariableValue":[]}],"nPureOrMixtureDataNumber":3,"dateDateAdded":"11/28/2014","sCompiler":"AB","Component":[{"RegNum":{"nOrgNum":2,"tml_elements":["nOrgNum"]},"nSampleNm":1,"tml_elements":["RegNum","nSampleNm"]}],"tml_elements":["nPureOrMixtureDataNumber","Component","eExpPurpose","sCompiler","sContributor","dateDateAdded","Property","PhaseID","NumValues"],"PhaseID":[{"ePhase":"Crystal 2","tml_elements":["ePhase"]},{"tml_elements":["ePhase"],"ePhase":"Crystal 1"},{"ePhase":"Air at 1 atmosphere","tml_elements":["ePhase"]}],"sContributor":"TRC"},{"tml_elements":["nPureOrMixtureDataNumber","Component","eExpPurpose","sCompiler","sContributor","dateDateAdded","Property","PhaseID","NumValues"],"PhaseID":[{"ePhase":"Crystal 2","tml_elements":["ePhase"]},{"tml_elements":["ePhase"],"ePhase":"Crystal 1"},{"tml_elements":["ePhase"],"ePhase":"Air at 1 atmosphere"}],"Component":[{"tml_elements":["RegNum","nSampleNm"],"RegNum":{"nOrgNum":2,"tml_elements":["nOrgNum"]},"nSampleNm":1}],"sContributor":"TRC","eExpPurpose":"Principal objective of the work","Property":[{"nPropNumber":1,"Property-MethodID":{"PropertyGroup":{"tml_elements":["PhaseTransition"],"PhaseTransition":{"tml_elements":["ePropName","sMethodName"],"sMethodName":"DSC","ePropName":"Molar enthalpy of transition or fusion, kJ/mol"}},"tml_elements":["PropertyGroup"]},"PropPhaseID":{"ePropPhase":"Crystal 2","tml_elements":["ePropPhase"]},"tml_elements":["nPropNumber","Property-MethodID","PropPhaseID","ePresentation","CombinedUncertainty"],"ePresentation":"Direct value, X","CombinedUncertainty":{"nCombUncertLevOfConfid":95,"eCombUncertEvalMethod":"Propagation of evaluated standard uncertainties","tml_elements":["nCombUncertAssessNum","sCombUncertEvaluator","eCombUncertEvalMethod","nCombUncertLevOfConfid"],"sCombUncertEvaluator":"Data file compiler","nCombUncertAssessNum":1}}],"nPureOrMixtureDataNumber":4,"dateDateAdded":"11/28/2014","sCompiler":"AB","NumValues":[{"VariableValue":[],"tml_elements":["PropertyValue"],"PropertyValue":[{"nPropValue":2.7,"CombinedUncertainty":{"nCombExpandUncertValue":0.3,"tml_elements":["nCombUncertAssessNum","nCombExpandUncertValue"],"nCombUncertAssessNum":1},"tml_elements":["nPropNumber","nPropValue","nPropDigits","CombinedUncertainty"],"nPropDigits":2,"nPropNumber":1}]}]},{"eExpPurpose":"Principal objective of the work","Property":[{"PropPhaseID":{"tml_elements":["ePropPhase"],"ePropPhase":"Crystal 1"},"nPropNumber":1,"ePresentation":"Direct value, X","tml_elements":["nPropNumber","Property-MethodID","PropPhaseID","ePresentation","CombinedUncertainty"],"Property-MethodID":{"PropertyGroup":{"tml_elements":["PhaseTransition"],"PhaseTransition":{"sMethodName":"DTA","ePropName":"Normal melting temperature, K","tml_elements":["ePropName","sMethodName"]}},"tml_elements":["PropertyGroup"]},"CombinedUncertainty":{"nCombUncertLevOfConfid":95,"eCombUncertEvalMethod":"Propagation of evaluated standard uncertainties","tml_elements":["nCombUncertAssessNum","sCombUncertEvaluator","eCombUncertEvalMethod","nCombUncertLevOfConfid"],"sCombUncertEvaluator":"Data file compiler","nCombUncertAssessNum":1}}],"NumValues":[{"tml_elements":["PropertyValue"],"PropertyValue":[{"nPropDigits":3,"nPropNumber":1,"tml_elements":["nPropNumber","nPropValue","nPropDigits","CombinedUncertainty"],"nPropValue":502.15,"CombinedUncertainty":{"tml_elements":["nCombUncertAssessNum","nCombExpandUncertValue"],"nCombExpandUncertValue":4,"nCombUncertAssessNum":1}}],"VariableValue":[]}],"dateDateAdded":"11/28/2014","nPureOrMixtureDataNumber":5,"sCompiler":"AB","Component":[{"tml_elements":["RegNum","nSampleNm"],"nSampleNm":1,"RegNum":{"nOrgNum":2,"tml_elements":["nOrgNum"]}}],"tml_elements":["nPureOrMixtureDataNumber","Component","eExpPurpose","sCompiler","sContributor","dateDateAdded","Property","PhaseID","NumValues"],"PhaseID":[{"tml_elements":["ePhase"],"ePhase":"Crystal 1"},{"tml_elements":["ePhase"],"ePhase":"Liquid"},{"tml_elements":["ePhase"],"ePhase":"Air at 1 atmosphere"}],"sContributor":"TRC"},{"Component":[{"tml_elements":["RegNum","nSampleNm"],"RegNum":{"nOrgNum":2,"tml_elements":["nOrgNum"]},"nSampleNm":1}],"tml_elements":["nPureOrMixtureDataNumber","Component","eExpPurpose","sCompiler","sContributor","dateDateAdded","Property","PhaseID","NumValues"],"PhaseID":[{"ePhase":"Crystal 1","tml_elements":["ePhase"]},{"tml_elements":["ePhase"],"ePhase":"Liquid"},{"tml_elements":["ePhase"],"ePhase":"Air at 1 atmosphere"}],"sContributor":"TRC","Property":[{"CombinedUncertainty":{"nCombUncertAssessNum":1,"sCombUncertEvaluator":"Data file compiler","tml_elements":["nCombUncertAssessNum","sCombUncertEvaluator","eCombUncertEvalMethod","nCombUncertLevOfConfid"],"nCombUncertLevOfConfid":95,"eCombUncertEvalMethod":"Propagation of evaluated standard uncertainties"},"Property-MethodID":{"PropertyGroup":{"PhaseTransition":{"ePropName":"Molar enthalpy of transition or fusion, kJ/mol","sMethodName":"DSC","tml_elements":["ePropName","sMethodName"]},"tml_elements":["PhaseTransition"]},"tml_elements":["PropertyGroup"]},"nPropNumber":1,"PropPhaseID":{"tml_elements":["ePropPhase"],"ePropPhase":"Crystal 1"},"tml_elements":["nPropNumber","Property-MethodID","PropPhaseID","ePresentation","CombinedUncertainty"],"ePresentation":"Direct value, X"}],"eExpPurpose":"Principal objective of the work","NumValues":[{"VariableValue":[],"tml_elements":["PropertyValue"],"PropertyValue":[{"nPropValue":32,"CombinedUncertainty":{"nCombUncertAssessNum":1,"tml_elements":["nCombUncertAssessNum","nCombExpandUncertValue"],"nCombExpandUncertValue":8},"tml_elements":["nPropNumber","nPropValue","nPropDigits","CombinedUncertainty"],"nPropNumber":1,"nPropDigits":2}]}],"nPureOrMixtureDataNumber":6,"dateDateAdded":"11/28/2014","sCompiler":"AB"},{"sContributor":"TRC","Component":[{"nSampleNm":1,"RegNum":{"tml_elements":["nOrgNum"],"nOrgNum":3},"tml_elements":["RegNum","nSampleNm"]}],"PhaseID":[{"ePhase":"Crystal","tml_elements":["ePhase"]},{"ePhase":"Liquid","tml_elements":["ePhase"]},{"ePhase":"Air at 1 atmosphere","tml_elements":["ePhase"]}],"tml_elements":["nPureOrMixtureDataNumber","Component","eExpPurpose","sCompiler","sContributor","dateDateAdded","Property","PhaseID","NumValues"],"NumValues":[{"VariableValue":[],"PropertyValue":[{"nPropValue":406.05,"CombinedUncertainty":{"nCombUncertAssessNum":1,"nCombExpandUncertValue":0.4,"tml_elements":["nCombUncertAssessNum","nCombExpandUncertValue"]},"nPropDigits":4,"nPropNumber":1,"tml_elements":["nPropNumber","nPropValue","nPropDigits","CombinedUncertainty"]}],"tml_elements":["PropertyValue"]}],"sCompiler":"AB","dateDateAdded":"11/28/2014","nPureOrMixtureDataNumber":7,"Property":[{"ePresentation":"Direct value, X","tml_elements":["nPropNumber","Property-MethodID","PropPhaseID","ePresentation","CombinedUncertainty"],"PropPhaseID":{"ePropPhase":"Crystal","tml_elements":["ePropPhase"]},"Property-MethodID":{"tml_elements":["PropertyGroup"],"PropertyGroup":{"tml_elements":["PhaseTransition"],"PhaseTransition":{"tml_elements":["ePropName","sMethodName"],"sMethodName":"DTA","ePropName":"Normal melting temperature, K"}}},"nPropNumber":1,"CombinedUncertainty":{"nCombUncertAssessNum":1,"sCombUncertEvaluator":"Data file compiler","tml_elements":["nCombUncertAssessNum","sCombUncertEvaluator","eCombUncertEvalMethod","nCombUncertLevOfConfid"],"eCombUncertEvalMethod":"Propagation of evaluated standard uncertainties","nCombUncertLevOfConfid":95}}],"eExpPurpose":"Principal objective of the work"},{"sContributor":"TRC","Component":[{"nSampleNm":1,"RegNum":{"tml_elements":["nOrgNum"],"nOrgNum":3},"tml_elements":["RegNum","nSampleNm"]}],"tml_elements":["nPureOrMixtureDataNumber","Component","eExpPurpose","sCompiler","sContributor","dateDateAdded","Property","PhaseID","NumValues"],"PhaseID":[{"tml_elements":["ePhase"],"ePhase":"Crystal"},{"ePhase":"Liquid","tml_elements":["ePhase"]},{"ePhase":"Air at 1 atmosphere","tml_elements":["ePhase"]}],"NumValues":[{"tml_elements":["PropertyValue"],"PropertyValue":[{"nPropNumber":1,"nPropDigits":3,"tml_elements":["nPropNumber","nPropValue","nPropDigits","CombinedUncertainty"],"CombinedUncertainty":{"nCombUncertAssessNum":1,"nCombExpandUncertValue":0.6,"tml_elements":["nCombUncertAssessNum","nCombExpandUncertValue"]},"nPropValue":16.7}],"VariableValue":[]}],"nPureOrMixtureDataNumber":8,"dateDateAdded":"11/28/2014","sCompiler":"AB","eExpPurpose":"Principal objective of the work","Property":[{"ePresentation":"Direct value, X","tml_elements":["nPropNumber","Property-MethodID","PropPhaseID","ePresentation","CombinedUncertainty"],"PropPhaseID":{"tml_elements":["ePropPhase"],"ePropPhase":"Crystal"},"nPropNumber":1,"Property-MethodID":{"PropertyGroup":{"PhaseTransition":{"sMethodName":"DSC","ePropName":"Molar enthalpy of transition or fusion, kJ/mol","tml_elements":["ePropName","sMethodName"]},"tml_elements":["PhaseTransition"]},"tml_elements":["PropertyGroup"]},"CombinedUncertainty":{"nCombUncertLevOfConfid":95,"eCombUncertEvalMethod":"Propagation of evaluated standard uncertainties","tml_elements":["nCombUncertAssessNum","sCombUncertEvaluator","eCombUncertEvalMethod","nCombUncertLevOfConfid"],"sCombUncertEvaluator":"Data file compiler","nCombUncertAssessNum":1}}]},{"PhaseID":[{"ePhase":"Crystal 3","tml_elements":["ePhase"]},{"ePhase":"Crystal 2","tml_elements":["ePhase"]},{"tml_elements":["ePhase"],"ePhase":"Air at 1 atmosphere"}],"tml_elements":["nPureOrMixtureDataNumber","Component","eExpPurpose","sCompiler","sContributor","dateDateAdded","Property","PhaseID","NumValues"],"Component":[{"tml_elements":["RegNum","nSampleNm"],"RegNum":{"nOrgNum":4,"tml_elements":["nOrgNum"]},"nSampleNm":1}],"sContributor":"TRC","eExpPurpose":"Principal objective of the work","Property":[{"tml_elements":["nPropNumber","Property-MethodID","PropPhaseID","ePresentation","CombinedUncertainty"],"ePresentation":"Direct value, X","nPropNumber":1,"PropPhaseID":{"ePropPhase":"Crystal 3","tml_elements":["ePropPhase"]},"CombinedUncertainty":{"nCombUncertAssessNum":1,"sCombUncertEvaluator":"Data file compiler","tml_elements":["nCombUncertAssessNum","sCombUncertEvaluator","eCombUncertEvalMethod","nCombUncertLevOfConfid"],"nCombUncertLevOfConfid":95,"eCombUncertEvalMethod":"Propagation of evaluated standard uncertainties"},"Property-MethodID":{"tml_elements":["PropertyGroup"],"PropertyGroup":{"tml_elements":["PhaseTransition"],"PhaseTransition":{"ePropName":"Molar enthalpy of transition or fusion, kJ/mol","sMethodName":"DSC","tml_elements":["ePropName","sMethodName"]}}}}],"sCompiler":"AB","nPureOrMixtureDataNumber":9,"dateDateAdded":"11/28/2014","NumValues":[{"VariableValue":[],"PropertyValue":[{"nPropNumber":1,"nPropDigits":3,"tml_elements":["nPropNumber","nPropValue","nPropDigits","CombinedUncertainty"],"CombinedUncertainty":{"nCombExpandUncertValue":1.76,"tml_elements":["nCombUncertAssessNum","nCombExpandUncertValue"],"nCombUncertAssessNum":1},"nPropValue":2.85}],"tml_elements":["PropertyValue"]}]},{"Property":[{"tml_elements":["nPropNumber","Property-MethodID","PropPhaseID","ePresentation","CombinedUncertainty"],"ePresentation":"Direct value, X","nPropNumber":1,"PropPhaseID":{"ePropPhase":"Crystal 2","tml_elements":["ePropPhase"]},"CombinedUncertainty":{"nCombUncertAssessNum":1,"sCombUncertEvaluator":"Data file compiler","tml_elements":["nCombUncertAssessNum","sCombUncertEvaluator","eCombUncertEvalMethod","nCombUncertLevOfConfid"],"nCombUncertLevOfConfid":95,"eCombUncertEvalMethod":"Propagation of evaluated standard uncertainties"},"Property-MethodID":{"PropertyGroup":{"tml_elements":["PhaseTransition"],"PhaseTransition":{"tml_elements":["ePropName","sMethodName"],"ePropName":"Solid-liquid equilibrium temperature, K","sMethodName":"DTA"}},"tml_elements":["PropertyGroup"]}}],"eExpPurpose":"Principal objective of the work","sCompiler":"AB","dateDateAdded":"11/28/2014","nPureOrMixtureDataNumber":10,"NumValues":[{"tml_elements":["VariableValue","PropertyValue"],"PropertyValue":[{"CombinedUncertainty":{"nCombUncertAssessNum":1,"nCombExpandUncertValue":0.8,"tml_elements":["nCombUncertAssessNum","nCombExpandUncertValue"]},"nPropValue":640.05,"nPropDigits":4,"nPropNumber":1,"tml_elements":["nPropNumber","nPropValue","nPropDigits","CombinedUncertainty"]}],"VariableValue":[{"nVarValue":10000,"nVarNumber":1,"tml_elements":["nVarNumber","nVarValue","nVarDigits"],"nVarDigits":1}]}],"PhaseID":[{"tml_elements":["ePhase"],"ePhase":"Crystal 2"},{"ePhase":"Crystal 1","tml_elements":["ePhase"]}],"tml_elements":["nPureOrMixtureDataNumber","Component","eExpPurpose","sCompiler","sContributor","dateDateAdded","Property","PhaseID","Variable","NumValues"],"Component":[{"tml_elements":["RegNum","nSampleNm"],"nSampleNm":1,"RegNum":{"tml_elements":["nOrgNum"],"nOrgNum":4}}],"Variable":[{"VariableID":{"VariableType":{"tml_elements":["ePressure"],"ePressure":"Pressure, kPa"},"tml_elements":["VariableType"]},"tml_elements":["nVarNumber","VariableID","VarPhaseID"],"nVarNumber":1,"VarPhaseID":{"tml_elements":["eVarPhase"],"eVarPhase":"Crystal 2"}}],"sContributor":"TRC"},{"nPureOrMixtureDataNumber":11,"dateDateAdded":"11/28/2014","sCompiler":"AB","NumValues":[{"PropertyValue":[{"nPropValue":2.8,"CombinedUncertainty":{"nCombExpandUncertValue":0.8,"tml_elements":["nCombUncertAssessNum","nCombExpandUncertValue"],"nCombUncertAssessNum":1},"tml_elements":["nPropNumber","nPropValue","nPropDigits","CombinedUncertainty"],"nPropNumber":1,"nPropDigits":2}],"tml_elements":["VariableValue","PropertyValue"],"VariableValue":[{"nVarNumber":1,"tml_elements":["nVarNumber","nVarValue","nVarDigits"],"nVarDigits":4,"nVarValue":640.05}]}],"eExpPurpose":"Principal objective of the work","Property":[{"CombinedUncertainty":{"eCombUncertEvalMethod":"Propagation of evaluated standard uncertainties","nCombUncertLevOfConfid":95,"tml_elements":["nCombUncertAssessNum","sCombUncertEvaluator","eCombUncertEvalMethod","nCombUncertLevOfConfid"],"sCombUncertEvaluator":"Data file compiler","nCombUncertAssessNum":1},"PropPhaseID":{"tml_elements":["ePropPhase"],"ePropPhase":"Crystal 2"},"Property-MethodID":{"tml_elements":["PropertyGroup"],"PropertyGroup":{"PhaseTransition":{"tml_elements":["ePropName","sMethodName"],"ePropName":"Molar enthalpy of transition or fusion, kJ/mol","sMethodName":"DSC"},"tml_elements":["PhaseTransition"]}},"nPropNumber":1,"ePresentation":"Direct value, X","tml_elements":["nPropNumber","Property-MethodID","PropPhaseID","ePresentation","CombinedUncertainty"]}],"sContributor":"TRC","Variable":[{"VariableID":{"VariableType":{"eTemperature":"Temperature, K","tml_elements":["eTemperature"]},"tml_elements":["VariableType"]},"nVarNumber":1,"VarPhaseID":{"eVarPhase":"Crystal 2","tml_elements":["eVarPhase"]},"tml_elements":["nVarNumber","VariableID","VarPhaseID"]}],"tml_elements":["nPureOrMixtureDataNumber","Component","eExpPurpose","sCompiler","sContributor","dateDateAdded","Property","PhaseID","Variable","NumValues"],"PhaseID":[{"ePhase":"Crystal 2","tml_elements":["ePhase"]},{"tml_elements":["ePhase"],"ePhase":"Crystal 1"}],"Component":[{"tml_elements":["RegNum","nSampleNm"],"nSampleNm":1,"RegNum":{"nOrgNum":4,"tml_elements":["nOrgNum"]}}]}],"THERMOML_MD5_CHECKSUM":"c868a1a9dfa579f9c9078500a982de20","Compound":[{"Sample":[{"tml_elements":["nSampleNm","eSource","purity"],"purity":[{"nPurityMass":98,"eAnalMeth":["Estimated by the compiler"],"nStep":1,"tml_elements":["nStep","nPurityMass","nPurityMassDigits","eAnalMeth"],"nPurityMassDigits":2}],"eSource":"Commercial source","nSampleNm":1}],"tml_elements":["RegNum","sStandardInChI","sStandardInChIKey","sCommonName","sFormulaMolec","Sample"],"sCommonName":["ammonium acid sulfate","ammonium bisulfate","ammonium hydrogen sulfate","ammonium hydrogen sulfate (NH4HSO4)","ammonium monohydrogen sulfate","ammonium sulfate ((NH4)HSO4)","monoammonium hydrogen sulfate","monoammonium sulfate","sulfuric acid, monoammonium salt"],"sFormulaMolec":"H5NO4S","RegNum":{"tml_elements":["nOrgNum"],"nOrgNum":1},"sStandardInChI":"InChI=1S/H3N.H2O4S/c;1-5(2,3)4/h1H3;(H2,1,2,3,4)","sStandardInChIKey":"BIGPRXCJEDHCLP-UHFFFAOYSA-N"},{"sStandardInChIKey":"LSQBSJGVGHPYAZ-UHFFFAOYSA-N","RegNum":{"tml_elements":["nOrgNum"],"nOrgNum":2},"sStandardInChI":"InChI=1S/3H3N.2H2O4S/c;;;2*1-5(2,3)4/h3*1H3;2*(H2,1,2,3,4)","sFormulaMolec":"H13N3O8S2","tml_elements":["RegNum","sStandardInChI","sStandardInChIKey","sCommonName","sFormulaMolec","Sample"],"Sample":[{"purity":[{"nStep":1,"tml_elements":["nStep","nPurityMass","nPurityMassDigits","eAnalMeth"],"nPurityMassDigits":2,"eAnalMeth":["Estimated by the compiler"],"nPurityMass":98}],"tml_elements":["nSampleNm","eSource","purity"],"eSource":"Synthesized by the authors","nSampleNm":1}],"sCommonName":["triammonium hydrogen disulfate","triammonium monohydrogen disulfate"]},{"sFormulaMolec":"H6N2O3S","tml_elements":["RegNum","sStandardInChI","sStandardInChIKey","sCommonName","sFormulaMolec","Sample"],"Sample":[{"eSource":"Commercial source","nSampleNm":1,"tml_elements":["nSampleNm","eSource","purity"],"purity":[{"nStep":1,"nPurityMolDigits":3,"tml_elements":["nStep","nPurityMol","nPurityMolDigits","eAnalMeth"],"nPurityMol":99.5,"eAnalMeth":["Thermal analysis using temperature-time measurement"]}]}],"sCommonName":["ammonium sulfamate"],"sStandardInChIKey":"GEHMBYLTCISYNY-UHFFFAOYSA-N","sStandardInChI":"InChI=1S/H3NO3S.H3N/c1-5(2,3)4;/h(H3,1,2,3,4);1H3","RegNum":{"tml_elements":["nOrgNum"],"nOrgNum":3}},{"sStandardInChIKey":"BFNBIHQBYMNNAN-UHFFFAOYSA-N","sStandardInChI":"InChI=1S/2H3N.H2O4S/c;;1-5(2,3)4/h2*1H3;(H2,1,2,3,4)","RegNum":{"nOrgNum":4,"tml_elements":["nOrgNum"]},"sFormulaMolec":"H8N2O4S","tml_elements":["RegNum","sStandardInChI","sStandardInChIKey","sCommonName","sFormulaMolec","Sample"],"sCommonName":["ammonium sulfate"],"Sample":[{"nSampleNm":1,"eSource":"Commercial source","tml_elements":["nSampleNm","eSource","purity"],"purity":[{"eAnalMeth":["Estimated by the compiler"],"nPurityMass":98,"nPurityMassDigits":2,"tml_elements":["nStep","nPurityMass","nPurityMassDigits","eAnalMeth"],"nStep":1}]}]}],"Citation":{"eSourceType":"Original","TRCRefID":{"sAuthor1":"kos","sAuthor2":"eme","tml_elements":["yrYrPub","sAuthor1","sAuthor2","nAuthorn"],"nAuthorn":"0","yrYrPub":"2014"},"sAbstract":"For the first time high-temperature polymorphic transition of ammonium sulfate (NH4)2SO4 (Tpt 370 C) was experimentally recorded and characterized by differential scanning calorimetry. Phase transitions parameters of (NH4)2SO4, of ammonium bisulfate NH4HSO4, of triammonium hydrogen disulfate (NH4)3H(SO4)2 and of ammonium sulfamate NH4SO3NH2 were clarified. Method of determining the phase transitions parameters for thermally unstable substances, in particular for the triammonium hydrogen disulfate (NH4)3H(SO4)2, was developed and tested with the help of differential scanning calorimetry.","sDOI":"10.1016/j.tca.2014.08.035","sTitle":"Phase transitions of some sulfur-containing ammonium salts","tml_elements":["TRCRefID","eType","eSourceType","sAuthor","sPubName","yrPubYr","dateCit","sTitle","sAbstract","sKeyword","sDOI","sVol","sPage"],"sAuthor":["Kosova, D. A.[Darya A.]","Emelina, A. L.[Anna L.]","Bykov, M. A.[Mikhail A.]"],"sKeyword":["Ammonium bisulfate NH4HSO4","Triammonium hydrogen disulfate (NH4)3H(SO4)2","Ammonium sulfamate NH4SO3NH2","Ammonium sulfate (NH4)2SO4","Phase transition"],"sPubName":"Thermochim. Acta","yrPubYr":"2014","dateCit":"2020-09-29","sPage":"61-66","eType":"journal","sVol":"595"},"Version":{"nVersionMajor":2,"nVersionMinor":0,"tml_elements":["nVersionMajor","nVersionMinor"]}}