{"Version":{"nVersionMinor":0,"nVersionMajor":2,"tml_elements":["nVersionMajor","nVersionMinor"]},"tml_elements":["Version","Citation","Compound","PureOrMixtureData"],"PureOrMixtureData":[{"Component":[{"RegNum":{"nOrgNum":1,"tml_elements":["nOrgNum"]},"nSampleNm":1,"tml_elements":["RegNum","nSampleNm"]}],"PhaseID":[{"ePhase":"Crystal 2","tml_elements":["ePhase"]},{"ePhase":"Crystal 1","tml_elements":["ePhase"]},{"tml_elements":["ePhase"],"ePhase":"Air at 1 atmosphere"}],"tml_elements":["nPureOrMixtureDataNumber","Component","eExpPurpose","sCompiler","sContributor","dateDateAdded","Property","PhaseID","NumValues"],"sContributor":"TRC","eExpPurpose":"Principal objective of the work","Property":[{"CombinedUncertainty":{"nCombUncertAssessNum":1,"sCombUncertEvaluator":"Data file compiler","tml_elements":["nCombUncertAssessNum","sCombUncertEvaluator","eCombUncertEvalMethod","nCombUncertLevOfConfid"],"eCombUncertEvalMethod":"Propagation of evaluated standard uncertainties","nCombUncertLevOfConfid":95},"ePresentation":"Direct value, X","tml_elements":["nPropNumber","Property-MethodID","PropPhaseID","ePresentation","CombinedUncertainty"],"PropPhaseID":{"ePropPhase":"Crystal 2","tml_elements":["ePropPhase"]},"Property-MethodID":{"tml_elements":["PropertyGroup"],"PropertyGroup":{"tml_elements":["PhaseTransition"],"PhaseTransition":{"tml_elements":["ePropName","sMethodName"],"sMethodName":"DSC","ePropName":"Triple point temperature, K"}}},"nPropNumber":1}],"NumValues":[{"VariableValue":[],"PropertyValue":[{"CombinedUncertainty":{"tml_elements":["nCombUncertAssessNum","nCombExpandUncertValue"],"nCombExpandUncertValue":5,"nCombUncertAssessNum":1},"nPropValue":351.15,"tml_elements":["nPropNumber","nPropValue","nPropDigits","CombinedUncertainty"],"nPropDigits":2,"nPropNumber":1}],"tml_elements":["PropertyValue"]}],"sCompiler":"AB","nPureOrMixtureDataNumber":1,"dateDateAdded":"3/29/2019"},{"Property":[{"CombinedUncertainty":{"tml_elements":["nCombUncertAssessNum","sCombUncertEvaluator","eCombUncertEvalMethod","nCombUncertLevOfConfid"],"eCombUncertEvalMethod":"Propagation of evaluated standard uncertainties","nCombUncertLevOfConfid":95,"nCombUncertAssessNum":1,"sCombUncertEvaluator":"Data file compiler"},"ePresentation":"Direct value, X","tml_elements":["nPropNumber","Property-MethodID","PropPhaseID","ePresentation","CombinedUncertainty"],"Property-MethodID":{"PropertyGroup":{"PhaseTransition":{"tml_elements":["ePropName","sMethodName"],"ePropName":"Triple point temperature, K","sMethodName":"DSC"},"tml_elements":["PhaseTransition"]},"tml_elements":["PropertyGroup"]},"PropPhaseID":{"tml_elements":["ePropPhase"],"ePropPhase":"Crystal 1"},"nPropNumber":1}],"eExpPurpose":"Principal objective of the work","NumValues":[{"PropertyValue":[{"CombinedUncertainty":{"tml_elements":["nCombUncertAssessNum","nCombExpandUncertValue"],"nCombExpandUncertValue":5,"nCombUncertAssessNum":1},"nPropValue":373.15,"nPropDigits":1,"nPropNumber":1,"tml_elements":["nPropNumber","nPropValue","nPropDigits","CombinedUncertainty"]}],"tml_elements":["PropertyValue"],"VariableValue":[]}],"sCompiler":"AB","nPureOrMixtureDataNumber":2,"dateDateAdded":"3/29/2019","Component":[{"tml_elements":["RegNum","nSampleNm"],"RegNum":{"tml_elements":["nOrgNum"],"nOrgNum":1},"nSampleNm":1}],"PhaseID":[{"tml_elements":["ePhase"],"ePhase":"Crystal 1"},{"ePhase":"Liquid","tml_elements":["ePhase"]},{"tml_elements":["ePhase"],"ePhase":"Air at 1 atmosphere"}],"tml_elements":["nPureOrMixtureDataNumber","Component","eExpPurpose","sCompiler","sContributor","dateDateAdded","Property","PhaseID","NumValues"],"sContributor":"TRC"},{"Variable":[{"VarPhaseID":{"eVarPhase":"Crystal 2","tml_elements":["eVarPhase"]},"nVarNumber":1,"tml_elements":["nVarNumber","VariableID","VarPhaseID"],"VariableID":{"VariableType":{"tml_elements":["eTemperature"],"eTemperature":"Temperature, K"},"tml_elements":["VariableType"]}},{"nVarNumber":2,"VarPhaseID":{"eVarPhase":"Crystal 2","tml_elements":["eVarPhase"]},"tml_elements":["nVarNumber","VariableID","VarPhaseID"],"VariableID":{"VariableType":{"ePressure":"Pressure, kPa","tml_elements":["ePressure"]},"tml_elements":["VariableType"]}}],"sContributor":"TRC","PhaseID":[{"tml_elements":["ePhase"],"ePhase":"Crystal 2"}],"tml_elements":["nPureOrMixtureDataNumber","Component","eExpPurpose","sCompiler","sContributor","dateDateAdded","Property","PhaseID","Variable","NumValues"],"Component":[{"tml_elements":["RegNum","nSampleNm"],"nSampleNm":1,"RegNum":{"tml_elements":["nOrgNum"],"nOrgNum":1}}],"sCompiler":"AB","nPureOrMixtureDataNumber":3,"dateDateAdded":"3/29/2019","NumValues":[{"VariableValue":[{"nVarValue":346.15,"nVarNumber":1,"tml_elements":["nVarNumber","nVarValue","nVarDigits"],"nVarDigits":2},{"nVarNumber":2,"nVarDigits":6,"tml_elements":["nVarNumber","nVarValue","nVarDigits"],"nVarValue":101.325}],"PropertyValue":[{"tml_elements":["nPropNumber","nPropValue","nPropDigits","CombinedUncertainty"],"nPropDigits":2,"nPropNumber":1,"CombinedUncertainty":{"nCombUncertAssessNum":1,"tml_elements":["nCombUncertAssessNum","nCombExpandUncertValue"],"nCombExpandUncertValue":22},"nPropValue":1100}],"tml_elements":["VariableValue","PropertyValue"]}],"eExpPurpose":"Principal objective of the work","Property":[{"Property-MethodID":{"PropertyGroup":{"tml_elements":["VolumetricProp"],"VolumetricProp":{"ePropName":"Mass density, kg/m3","eMethodName":"X-ray diffraction","tml_elements":["ePropName","eMethodName"]}},"tml_elements":["PropertyGroup"]},"CombinedUncertainty":{"sCombUncertEvaluator":"Data file compiler","nCombUncertAssessNum":1,"eCombUncertEvalMethod":"Propagation of evaluated standard uncertainties","nCombUncertLevOfConfid":95,"tml_elements":["nCombUncertAssessNum","sCombUncertEvaluator","eCombUncertEvalMethod","nCombUncertLevOfConfid"]},"tml_elements":["nPropNumber","Property-MethodID","PropPhaseID","ePresentation","CombinedUncertainty"],"ePresentation":"Direct value, X","nPropNumber":1,"PropPhaseID":{"tml_elements":["ePropPhase"],"ePropPhase":"Crystal 2"}}]},{"PhaseID":[{"tml_elements":["ePhase"],"ePhase":"Crystal 1"}],"tml_elements":["nPureOrMixtureDataNumber","Component","eExpPurpose","sCompiler","sContributor","dateDateAdded","Property","PhaseID","Variable","NumValues"],"sContributor":"TRC","Component":[{"nSampleNm":1,"RegNum":{"nOrgNum":1,"tml_elements":["nOrgNum"]},"tml_elements":["RegNum","nSampleNm"]}],"Variable":[{"tml_elements":["nVarNumber","VariableID","VarPhaseID"],"nVarNumber":1,"VarPhaseID":{"tml_elements":["eVarPhase"],"eVarPhase":"Crystal 1"},"VariableID":{"VariableType":{"eTemperature":"Temperature, K","tml_elements":["eTemperature"]},"tml_elements":["VariableType"]}},{"tml_elements":["nVarNumber","VariableID","VarPhaseID"],"nVarNumber":2,"VarPhaseID":{"eVarPhase":"Crystal 1","tml_elements":["eVarPhase"]},"VariableID":{"VariableType":{"ePressure":"Pressure, kPa","tml_elements":["ePressure"]},"tml_elements":["VariableType"]}}],"Property":[{"CombinedUncertainty":{"tml_elements":["nCombUncertAssessNum","sCombUncertEvaluator","eCombUncertEvalMethod","nCombUncertLevOfConfid"],"nCombUncertLevOfConfid":95,"eCombUncertEvalMethod":"Propagation of evaluated standard uncertainties","nCombUncertAssessNum":1,"sCombUncertEvaluator":"Data file compiler"},"Property-MethodID":{"tml_elements":["PropertyGroup"],"PropertyGroup":{"tml_elements":["VolumetricProp"],"VolumetricProp":{"ePropName":"Mass density, kg/m3","eMethodName":"X-ray diffraction","tml_elements":["ePropName","eMethodName"]}}},"tml_elements":["nPropNumber","Property-MethodID","PropPhaseID","ePresentation","CombinedUncertainty"],"ePresentation":"Direct value, X","nPropNumber":1,"PropPhaseID":{"tml_elements":["ePropPhase"],"ePropPhase":"Crystal 1"}}],"eExpPurpose":"Principal objective of the work","NumValues":[{"VariableValue":[{"nVarNumber":1,"tml_elements":["nVarNumber","nVarValue","nVarDigits"],"nVarDigits":2,"nVarValue":356.15},{"nVarValue":101.325,"nVarNumber":2,"tml_elements":["nVarNumber","nVarValue","nVarDigits"],"nVarDigits":6}],"PropertyValue":[{"nPropValue":1096,"CombinedUncertainty":{"tml_elements":["nCombUncertAssessNum","nCombExpandUncertValue"],"nCombExpandUncertValue":22,"nCombUncertAssessNum":1},"nPropNumber":1,"nPropDigits":4,"tml_elements":["nPropNumber","nPropValue","nPropDigits","CombinedUncertainty"]}],"tml_elements":["VariableValue","PropertyValue"]}],"sCompiler":"AB","nPureOrMixtureDataNumber":4,"dateDateAdded":"3/29/2019"}],"THERMOML_MD5_CHECKSUM":"ac883d70bdc3e752ac3dc4abdc53d2db","Citation":{"sPubName":"Thermochim. Acta","yrPubYr":"2018","dateCit":"2020-09-29","sPage":"119-126","sVol":"665","eType":"journal","eSourceType":"Original","sDOI":"10.1016/j.tca.2018.05.015","sTitle":"Kinetic analysis of solids of the quasi-autocatalytic decomposition type: SADT determination of low-temperature polymorph of AIBN","TRCRefID":{"yrYrPub":"2018","tml_elements":["yrYrPub","sAuthor1","sAuthor2","nAuthorn"],"nAuthorn":"0","sAuthor1":"rod","sAuthor2":"har"},"sAbstract":"Simulations of SADT values based on the heat balance of the system are presented for azobisisobutyronitrile (AIBN). These simulations used kinetic parameters obtained from heat flow calorimetry experiments performed at temperatures in the stability range of low-temperature (L-T) polymorph of AIBN. Thermal Activity Monitor (TAM) data were collected in the range of 55 70 deg C. The simulated SADT value for L-T AIBN amounts to 46 deg C. This is very similar to the computed results obtained in the BAM project (Malow et al., 2015; Roduit et al., 2015; Moukhina, 2015; Kossoy et al., 2015) for the high-temperature (H-T) form of AIBN which amounts to 47 deg C and is also in full agreement with the large scale experimentally found SADT of AIBN (47 deg C) (Malow et al., 2015). The prerequisites for collecting proper kinetic data for the quasi-AC type energetic materials in which the phase change phenomena (polymorphic transformation or melting) precedes the decomposition are discussed. The apparent paradox when the application of incorrect kinetics applied in narrow a or T ranges may sometimes result in the correct predictions of such safety parameters, such as SADT, is also explained.","sKeyword":["Thermal hazard simulation","AIBN","SADT","Isothermal microcalorimetry","Kinetics","Heat balance"],"sAuthor":["Roduit, B.[Bertrand]","Hartmann, M.[Marco]","Folly, P.[Patrick]","Sarbach, A.[Alexandre]","Dejeaifve, A.[Alain]","Dobson, R.[Rowan]","Kurko, K.[Ken]"],"tml_elements":["TRCRefID","eType","eSourceType","sAuthor","sPubName","yrPubYr","dateCit","sTitle","sAbstract","sKeyword","sDOI","sVol","sPage"]},"Compound":[{"RegNum":{"tml_elements":["nOrgNum"],"nOrgNum":1},"sStandardInChI":"InChI=1S/C8H12N4/c1-7(2,5-9)11-12-8(3,4)6-10/h1-4H3","sStandardInChIKey":"OZAIFHULBGXAKX-UHFFFAOYSA-N","sFormulaMolec":"C8H12N4","tml_elements":["RegNum","sStandardInChI","sStandardInChIKey","sCommonName","sFormulaMolec","Sample"],"Sample":[{"purity":[{"eAnalMeth":["Stated by supplier"],"tml_elements":["nStep","nUnknownPerCent","nUnknownPerCentDigits","eAnalMeth"],"nStep":1,"nUnknownPerCent":98,"nUnknownPerCentDigits":2}],"tml_elements":["nSampleNm","eSource","purity"],"nSampleNm":1,"eSource":"Commercial source"}],"sCommonName":["2,2'-dimethyl-2,2'-azodipropionitrile",".alpha.,.alpha.'-azobis(isobutyronitrile)",".alpha.,.alpha.'-azodiisobutyric acid dinitrile",".alpha.,.alpha.'-azodiisobutyronitrile","2,2'-azobis(2-cyanopropane)","2,2'-azobis(2-methylpropanenitrile)","2,2'-azobis(2-methylpropionitrile)","2,2'-azobis[isobutyronitrile]","2,2'-azodiisobutyronitril","N,N'-azobis(isobutyronitrile)","N,N'-bis(2-cyano-2-propyl)diazene","azobisisobutyronitrile"]}]}