{"tml_elements":["Version","Citation","Compound","PureOrMixtureData"],"PureOrMixtureData":[{"NumValues":[{"VariableValue":[{"nVarValue":0.04,"nVarNumber":1,"nVarDigits":1,"tml_elements":["nVarNumber","nVarValue","nVarDigits"]}],"tml_elements":["VariableValue","PropertyValue"],"PropertyValue":[{"nPropDigits":3,"nPropNumber":1,"tml_elements":["nPropNumber","nPropValue","nPropDigits","CombinedUncertainty"],"nPropValue":3093.15,"CombinedUncertainty":{"nCombUncertAssessNum":1,"nCombExpandUncertValue":20,"tml_elements":["nCombUncertAssessNum","nCombExpandUncertValue"]}}]},{"tml_elements":["VariableValue","PropertyValue"],"PropertyValue":[{"nPropValue":3091.15,"CombinedUncertainty":{"nCombUncertAssessNum":1,"nCombExpandUncertValue":20,"tml_elements":["nCombUncertAssessNum","nCombExpandUncertValue"]},"nPropDigits":4,"nPropNumber":1,"tml_elements":["nPropNumber","nPropValue","nPropDigits","CombinedUncertainty"]}],"VariableValue":[{"tml_elements":["nVarNumber","nVarValue","nVarDigits"],"nVarDigits":1,"nVarNumber":1,"nVarValue":0.06}]},{"VariableValue":[{"nVarValue":0.08,"nVarNumber":1,"tml_elements":["nVarNumber","nVarValue","nVarDigits"],"nVarDigits":1}],"tml_elements":["VariableValue","PropertyValue"],"PropertyValue":[{"nPropValue":3056.15,"CombinedUncertainty":{"tml_elements":["nCombUncertAssessNum","nCombExpandUncertValue"],"nCombExpandUncertValue":20,"nCombUncertAssessNum":1},"nPropNumber":1,"nPropDigits":4,"tml_elements":["nPropNumber","nPropValue","nPropDigits","CombinedUncertainty"]}]},{"VariableValue":[{"nVarValue":0.12,"nVarNumber":1,"tml_elements":["nVarNumber","nVarValue","nVarDigits"],"nVarDigits":2}],"PropertyValue":[{"tml_elements":["nPropNumber","nPropValue","nPropDigits","CombinedUncertainty"],"nPropNumber":1,"nPropDigits":4,"CombinedUncertainty":{"nCombUncertAssessNum":1,"nCombExpandUncertValue":20,"tml_elements":["nCombUncertAssessNum","nCombExpandUncertValue"]},"nPropValue":3012.15}],"tml_elements":["VariableValue","PropertyValue"]}],"sCompiler":"KGK","nPureOrMixtureDataNumber":1,"dateDateAdded":"8/26/2013","Property":[{"CombinedUncertainty":{"sCombUncertEvaluator":"Data file compiler","nCombUncertAssessNum":1,"eCombUncertEvalMethod":"Propagation of evaluated standard uncertainties","nCombUncertLevOfConfid":95,"tml_elements":["nCombUncertAssessNum","sCombUncertEvaluator","eCombUncertEvalMethod","nCombUncertLevOfConfid"]},"ePresentation":"Direct value, X","tml_elements":["nPropNumber","Property-MethodID","PropPhaseID","ePresentation","CombinedUncertainty"],"PropPhaseID":{"ePropPhase":"Liquid","tml_elements":["ePropPhase"]},"Property-MethodID":{"PropertyGroup":{"tml_elements":["PhaseTransition"],"PhaseTransition":{"sMethodName":"DTA","ePropName":"Solid-liquid equilibrium temperature, K","tml_elements":["ePropName","sMethodName"]}},"tml_elements":["PropertyGroup"]},"nPropNumber":1}],"eExpPurpose":"Principal objective of the work","Variable":[{"VarPhaseID":{"eVarPhase":"Liquid","tml_elements":["eVarPhase"]},"nVarNumber":1,"tml_elements":["nVarNumber","VariableID","VarPhaseID"],"VariableID":{"RegNum":{"tml_elements":["nOrgNum"],"nOrgNum":2},"tml_elements":["VariableType","RegNum"],"VariableType":{"tml_elements":["eComponentComposition"],"eComponentComposition":"Mass fraction"}}}],"sContributor":"TRC","Constraint":[{"tml_elements":["nConstraintNumber","ConstraintID","ConstraintPhaseID","nConstraintValue","nConstrDigits"],"nConstraintValue":101,"nConstrDigits":3,"nConstraintNumber":1,"ConstraintID":{"ConstraintType":{"ePressure":"Pressure, kPa","tml_elements":["ePressure"]},"tml_elements":["ConstraintType"]},"ConstraintPhaseID":{"tml_elements":["eConstraintPhase"],"eConstraintPhase":"Liquid"}}],"Component":[{"nSampleNm":1,"RegNum":{"nOrgNum":1,"tml_elements":["nOrgNum"]},"tml_elements":["RegNum","nSampleNm"]},{"tml_elements":["RegNum","nSampleNm"],"nSampleNm":1,"RegNum":{"tml_elements":["nOrgNum"],"nOrgNum":2}}],"PhaseID":[{"tml_elements":["ePhase"],"ePhase":"Liquid"},{"tml_elements":["ePhase"],"ePhase":"Crystal"}],"tml_elements":["nPureOrMixtureDataNumber","Component","eExpPurpose","sCompiler","sContributor","dateDateAdded","Property","PhaseID","Constraint","Variable","NumValues"]},{"Property":[{"Property-MethodID":{"PropertyGroup":{"PhaseTransition":{"sMethodName":"DTA","ePropName":"Solid-liquid equilibrium temperature, K","tml_elements":["ePropName","sMethodName"]},"tml_elements":["PhaseTransition"]},"tml_elements":["PropertyGroup"]},"CombinedUncertainty":{"nCombUncertLevOfConfid":95,"eCombUncertEvalMethod":"Propagation of evaluated standard uncertainties","tml_elements":["nCombUncertAssessNum","sCombUncertEvaluator","eCombUncertEvalMethod","nCombUncertLevOfConfid"],"sCombUncertEvaluator":"Data file compiler","nCombUncertAssessNum":1},"ePresentation":"Direct value, X","tml_elements":["nPropNumber","Property-MethodID","PropPhaseID","ePresentation","CombinedUncertainty"],"PropPhaseID":{"ePropPhase":"Crystal","tml_elements":["ePropPhase"]},"nPropNumber":1}],"eExpPurpose":"Principal objective of the work","NumValues":[{"PropertyValue":[{"nPropValue":2943.15,"CombinedUncertainty":{"nCombUncertAssessNum":1,"nCombExpandUncertValue":25,"tml_elements":["nCombUncertAssessNum","nCombExpandUncertValue"]},"nPropNumber":1,"nPropDigits":3,"tml_elements":["nPropNumber","nPropValue","nPropDigits","CombinedUncertainty"]}],"tml_elements":["VariableValue","PropertyValue"],"VariableValue":[{"nVarNumber":1,"nVarDigits":1,"tml_elements":["nVarNumber","nVarValue","nVarDigits"],"nVarValue":0.04}]},{"tml_elements":["VariableValue","PropertyValue"],"PropertyValue":[{"tml_elements":["nPropNumber","nPropValue","nPropDigits","CombinedUncertainty"],"nPropDigits":3,"nPropNumber":1,"nPropValue":2893.15,"CombinedUncertainty":{"tml_elements":["nCombUncertAssessNum","nCombExpandUncertValue"],"nCombExpandUncertValue":25,"nCombUncertAssessNum":1}}],"VariableValue":[{"nVarValue":0.06,"nVarDigits":1,"tml_elements":["nVarNumber","nVarValue","nVarDigits"],"nVarNumber":1}]},{"tml_elements":["VariableValue","PropertyValue"],"PropertyValue":[{"CombinedUncertainty":{"nCombUncertAssessNum":1,"tml_elements":["nCombUncertAssessNum","nCombExpandUncertValue"],"nCombExpandUncertValue":25},"nPropValue":2810.15,"tml_elements":["nPropNumber","nPropValue","nPropDigits","CombinedUncertainty"],"nPropDigits":4,"nPropNumber":1}],"VariableValue":[{"nVarValue":0.08,"nVarDigits":1,"tml_elements":["nVarNumber","nVarValue","nVarDigits"],"nVarNumber":1}]},{"VariableValue":[{"nVarNumber":1,"nVarDigits":2,"tml_elements":["nVarNumber","nVarValue","nVarDigits"],"nVarValue":0.12}],"tml_elements":["VariableValue","PropertyValue"],"PropertyValue":[{"nPropValue":2734.15,"CombinedUncertainty":{"nCombUncertAssessNum":1,"tml_elements":["nCombUncertAssessNum","nCombExpandUncertValue"],"nCombExpandUncertValue":25},"tml_elements":["nPropNumber","nPropValue","nPropDigits","CombinedUncertainty"],"nPropDigits":4,"nPropNumber":1}]}],"sCompiler":"KGK","dateDateAdded":"8/26/2013","nPureOrMixtureDataNumber":2,"Component":[{"tml_elements":["RegNum","nSampleNm"],"RegNum":{"nOrgNum":1,"tml_elements":["nOrgNum"]},"nSampleNm":1},{"nSampleNm":1,"RegNum":{"tml_elements":["nOrgNum"],"nOrgNum":2},"tml_elements":["RegNum","nSampleNm"]}],"PhaseID":[{"ePhase":"Crystal","tml_elements":["ePhase"]},{"tml_elements":["ePhase"],"ePhase":"Liquid"}],"tml_elements":["nPureOrMixtureDataNumber","Component","eExpPurpose","sCompiler","sContributor","dateDateAdded","Property","PhaseID","Constraint","Variable","NumValues"],"Variable":[{"VariableID":{"tml_elements":["VariableType","RegNum"],"VariableType":{"tml_elements":["eComponentComposition"],"eComponentComposition":"Mass fraction"},"RegNum":{"tml_elements":["nOrgNum"],"nOrgNum":2}},"tml_elements":["nVarNumber","VariableID","VarPhaseID"],"VarPhaseID":{"eVarPhase":"Crystal","tml_elements":["eVarPhase"]},"nVarNumber":1}],"sContributor":"TRC","Constraint":[{"ConstraintID":{"tml_elements":["ConstraintType"],"ConstraintType":{"ePressure":"Pressure, kPa","tml_elements":["ePressure"]}},"nConstrDigits":3,"nConstraintNumber":1,"ConstraintPhaseID":{"tml_elements":["eConstraintPhase"],"eConstraintPhase":"Crystal"},"nConstraintValue":101,"tml_elements":["nConstraintNumber","ConstraintID","ConstraintPhaseID","nConstraintValue","nConstrDigits"]}]},{"nPureOrMixtureDataNumber":3,"dateDateAdded":"8/26/2013","sCompiler":"KGK","NumValues":[{"VariableValue":[{"nVarDigits":1,"tml_elements":["nVarNumber","nVarValue","nVarDigits"],"nVarNumber":1,"nVarValue":0.02}],"PropertyValue":[{"CombinedUncertainty":{"nCombExpandUncertValue":25,"tml_elements":["nCombUncertAssessNum","nCombExpandUncertValue"],"nCombUncertAssessNum":1},"nPropValue":2908.15,"nPropNumber":1,"nPropDigits":4,"tml_elements":["nPropNumber","nPropValue","nPropDigits","CombinedUncertainty"]}],"tml_elements":["VariableValue","PropertyValue"]},{"VariableValue":[{"nVarDigits":1,"tml_elements":["nVarNumber","nVarValue","nVarDigits"],"nVarNumber":1,"nVarValue":0.04}],"PropertyValue":[{"CombinedUncertainty":{"tml_elements":["nCombUncertAssessNum","nCombExpandUncertValue"],"nCombExpandUncertValue":25,"nCombUncertAssessNum":1},"nPropValue":2873.15,"nPropDigits":2,"nPropNumber":1,"tml_elements":["nPropNumber","nPropValue","nPropDigits","CombinedUncertainty"]}],"tml_elements":["VariableValue","PropertyValue"]},{"VariableValue":[{"nVarValue":0.08,"nVarNumber":1,"nVarDigits":1,"tml_elements":["nVarNumber","nVarValue","nVarDigits"]}],"PropertyValue":[{"CombinedUncertainty":{"nCombUncertAssessNum":1,"nCombExpandUncertValue":25,"tml_elements":["nCombUncertAssessNum","nCombExpandUncertValue"]},"nPropValue":2805.15,"nPropDigits":4,"nPropNumber":1,"tml_elements":["nPropNumber","nPropValue","nPropDigits","CombinedUncertainty"]}],"tml_elements":["VariableValue","PropertyValue"]}],"Property":[{"ePresentation":"Direct value, X","tml_elements":["nPropNumber","Property-MethodID","PropPhaseID","ePresentation","CombinedUncertainty"],"PropPhaseID":{"ePropPhase":"Crystal","tml_elements":["ePropPhase"]},"nPropNumber":1,"CombinedUncertainty":{"nCombUncertAssessNum":1,"sCombUncertEvaluator":"Data file compiler","tml_elements":["nCombUncertAssessNum","sCombUncertEvaluator","eCombUncertEvalMethod","nCombUncertLevOfConfid"],"nCombUncertLevOfConfid":95,"eCombUncertEvalMethod":"Propagation of evaluated standard uncertainties"},"Property-MethodID":{"tml_elements":["PropertyGroup"],"PropertyGroup":{"tml_elements":["PhaseTransition"],"PhaseTransition":{"tml_elements":["ePropName","sMethodName"],"sMethodName":"DTA","ePropName":"Solid-liquid equilibrium temperature, K"}}}}],"eExpPurpose":"Principal objective of the work","Constraint":[{"nConstraintValue":101,"ConstraintPhaseID":{"tml_elements":["eConstraintPhase"],"eConstraintPhase":"Crystal"},"ConstraintID":{"ConstraintType":{"ePressure":"Pressure, kPa","tml_elements":["ePressure"]},"tml_elements":["ConstraintType"]},"tml_elements":["nConstraintNumber","ConstraintID","ConstraintPhaseID","nConstraintValue","nConstrDigits"],"nConstrDigits":3,"nConstraintNumber":1}],"sContributor":"TRC","Variable":[{"tml_elements":["nVarNumber","VariableID","VarPhaseID"],"nVarNumber":1,"VarPhaseID":{"eVarPhase":"Crystal","tml_elements":["eVarPhase"]},"VariableID":{"RegNum":{"nOrgNum":3,"tml_elements":["nOrgNum"]},"tml_elements":["VariableType","RegNum"],"VariableType":{"tml_elements":["eComponentComposition"],"eComponentComposition":"Mass fraction"}}}],"tml_elements":["nPureOrMixtureDataNumber","Component","eExpPurpose","sCompiler","sContributor","dateDateAdded","Property","PhaseID","Constraint","Variable","NumValues"],"PhaseID":[{"ePhase":"Crystal","tml_elements":["ePhase"]},{"tml_elements":["ePhase"],"ePhase":"Liquid"}],"Component":[{"nSampleNm":1,"RegNum":{"nOrgNum":1,"tml_elements":["nOrgNum"]},"tml_elements":["RegNum","nSampleNm"]},{"tml_elements":["RegNum","nSampleNm"],"nSampleNm":1,"RegNum":{"nOrgNum":3,"tml_elements":["nOrgNum"]}}]},{"Property":[{"CombinedUncertainty":{"nCombUncertAssessNum":1,"sCombUncertEvaluator":"Data file compiler","tml_elements":["nCombUncertAssessNum","sCombUncertEvaluator","eCombUncertEvalMethod","nCombUncertLevOfConfid"],"nCombUncertLevOfConfid":95,"eCombUncertEvalMethod":"Propagation of evaluated standard uncertainties"},"ePresentation":"Direct value, X","tml_elements":["nPropNumber","Property-MethodID","PropPhaseID","ePresentation","CombinedUncertainty"],"PropPhaseID":{"ePropPhase":"Liquid","tml_elements":["ePropPhase"]},"Property-MethodID":{"PropertyGroup":{"PhaseTransition":{"ePropName":"Solid-liquid equilibrium temperature, K","sMethodName":"DTA","tml_elements":["ePropName","sMethodName"]},"tml_elements":["PhaseTransition"]},"tml_elements":["PropertyGroup"]},"nPropNumber":1}],"eExpPurpose":"Principal objective of the work","nPureOrMixtureDataNumber":4,"dateDateAdded":"8/26/2013","sCompiler":"KGK","NumValues":[{"VariableValue":[{"nVarValue":0.02,"tml_elements":["nVarNumber","nVarValue","nVarDigits"],"nVarDigits":1,"nVarNumber":1}],"PropertyValue":[{"nPropValue":3095.15,"CombinedUncertainty":{"nCombExpandUncertValue":20,"tml_elements":["nCombUncertAssessNum","nCombExpandUncertValue"],"nCombUncertAssessNum":1},"nPropDigits":4,"nPropNumber":1,"tml_elements":["nPropNumber","nPropValue","nPropDigits","CombinedUncertainty"]}],"tml_elements":["VariableValue","PropertyValue"]},{"VariableValue":[{"nVarNumber":1,"nVarDigits":1,"tml_elements":["nVarNumber","nVarValue","nVarDigits"],"nVarValue":0.04}],"PropertyValue":[{"CombinedUncertainty":{"tml_elements":["nCombUncertAssessNum","nCombExpandUncertValue"],"nCombExpandUncertValue":20,"nCombUncertAssessNum":1},"nPropValue":3063.15,"nPropNumber":1,"nPropDigits":3,"tml_elements":["nPropNumber","nPropValue","nPropDigits","CombinedUncertainty"]}],"tml_elements":["VariableValue","PropertyValue"]},{"VariableValue":[{"nVarValue":0.08,"nVarNumber":1,"tml_elements":["nVarNumber","nVarValue","nVarDigits"],"nVarDigits":1}],"PropertyValue":[{"tml_elements":["nPropNumber","nPropValue","nPropDigits","CombinedUncertainty"],"nPropDigits":4,"nPropNumber":1,"CombinedUncertainty":{"nCombUncertAssessNum":1,"nCombExpandUncertValue":20,"tml_elements":["nCombUncertAssessNum","nCombExpandUncertValue"]},"nPropValue":3070.15}],"tml_elements":["VariableValue","PropertyValue"]}],"tml_elements":["nPureOrMixtureDataNumber","Component","eExpPurpose","sCompiler","sContributor","dateDateAdded","Property","PhaseID","Constraint","Variable","NumValues"],"PhaseID":[{"tml_elements":["ePhase"],"ePhase":"Liquid"},{"ePhase":"Crystal","tml_elements":["ePhase"]}],"Component":[{"RegNum":{"nOrgNum":1,"tml_elements":["nOrgNum"]},"nSampleNm":1,"tml_elements":["RegNum","nSampleNm"]},{"tml_elements":["RegNum","nSampleNm"],"RegNum":{"tml_elements":["nOrgNum"],"nOrgNum":3},"nSampleNm":1}],"Constraint":[{"nConstraintValue":101,"tml_elements":["nConstraintNumber","ConstraintID","ConstraintPhaseID","nConstraintValue","nConstrDigits"],"ConstraintPhaseID":{"eConstraintPhase":"Liquid","tml_elements":["eConstraintPhase"]},"ConstraintID":{"ConstraintType":{"ePressure":"Pressure, kPa","tml_elements":["ePressure"]},"tml_elements":["ConstraintType"]},"nConstraintNumber":1,"nConstrDigits":3}],"sContributor":"TRC","Variable":[{"VariableID":{"VariableType":{"eComponentComposition":"Mass fraction","tml_elements":["eComponentComposition"]},"tml_elements":["VariableType","RegNum"],"RegNum":{"nOrgNum":3,"tml_elements":["nOrgNum"]}},"VarPhaseID":{"tml_elements":["eVarPhase"],"eVarPhase":"Liquid"},"nVarNumber":1,"tml_elements":["nVarNumber","VariableID","VarPhaseID"]}]}],"THERMOML_MD5_CHECKSUM":"4d8c0098e06fd9c22697ecf8b0f23b44","Citation":{"sPubName":"Thermochim. Acta","yrPubYr":"2007","sIDNum":"1-2","dateCit":"2020-09-29","sPage":"134-137","eType":"journal","sVol":"455","eSourceType":"Original","sTitle":"The solidus and liquidus temperatures of UO2 Gd2O3 and UO2 Er2O3 fuels","sDOI":"10.1016/j.tca.2006.11.027","TRCRefID":{"sAuthor2":"yan","sAuthor1":"kan","nAuthorn":"0","tml_elements":["yrYrPub","sAuthor1","sAuthor2","nAuthorn"],"yrYrPub":"2007"},"sAbstract":"The melting temperatures of UO2 (4, 6, 8, 12) wt% Gd2O3, UO2 (2, 4, 8) wt% Er2O3 and UO2 fuels were measured. The fuels were prepared  by sintering the green pellets of powder mixtures. Fuel fragments were loaded into a tungsten capsule filled with helium, and then they were  melted by an induction heating. The melting temperature was measured by the thermal arrest method during a heating of the capsule. The solidus  and liquidus temperatures of UO2 Gd2O3 and UO2 Er2O3 were also determined. The solidus temperatures of UO2 Gd2O3 and UO2 Er2O3 were  almost 150 280 and 180 270 .C lower than their liquidus temperatures, respectively.","sAuthor":["Kang, K. W.[Ki Won]","Yang, J. H.[Jae Ho]","Kim, J. H.[Jong Hun]","Rhee, Y. W.[Young Woo]","Kim, D. J.[Dong Joo]","Kim, K. S.[Keon Sik]","Song, K. W.[Kun Woo]"],"sKeyword":["Melting temperature","Thermal arrest","UO2 Gd2O3","UO2 Er2O3"],"tml_elements":["TRCRefID","eType","eSourceType","sAuthor","sPubName","yrPubYr","dateCit","sTitle","sAbstract","sKeyword","sDOI","sIDNum","sVol","sPage"]},"Compound":[{"sStandardInChI":"InChI=1S/2O.U/q2*-2;+4","RegNum":{"tml_elements":["nOrgNum"],"nOrgNum":1},"sStandardInChIKey":"OOAWCECZEHPMBX-UHFFFAOYSA-N","tml_elements":["RegNum","sStandardInChI","sStandardInChIKey","sCommonName","sFormulaMolec","Sample"],"Sample":[{"nSampleNm":1,"tml_elements":["nSampleNm","eStatus","purity"],"eStatus":"notDescribed","purity":[]}],"sCommonName":["uranium dioxide","uranium(IV) oxide"],"sFormulaMolec":"O2U"},{"sCommonName":["gadolinium sesquioxide"],"tml_elements":["RegNum","sStandardInChI","sStandardInChIKey","sCommonName","sFormulaMolec","Sample"],"Sample":[{"purity":[],"tml_elements":["nSampleNm","eStatus","purity"],"eStatus":"notDescribed","nSampleNm":1}],"sFormulaMolec":"Gd2O3","RegNum":{"tml_elements":["nOrgNum"],"nOrgNum":2},"sStandardInChI":"InChI=1S/2Gd.3O/q2*+3;3*-2","sStandardInChIKey":"CMIHHWBVHJVIGI-UHFFFAOYSA-N"},{"sStandardInChIKey":"ZXGIFJXRQHZCGJ-UHFFFAOYSA-N","sStandardInChI":"InChI=1S/2Er.3O/q2*+3;3*-2","RegNum":{"nOrgNum":3,"tml_elements":["nOrgNum"]},"sFormulaMolec":"Er2O3","sCommonName":["erbium oxide"],"tml_elements":["RegNum","sStandardInChI","sStandardInChIKey","sCommonName","sFormulaMolec","Sample"],"Sample":[{"purity":[],"eStatus":"notDescribed","tml_elements":["nSampleNm","eStatus","purity"],"nSampleNm":1}]}],"Version":{"nVersionMinor":0,"nVersionMajor":2,"tml_elements":["nVersionMajor","nVersionMinor"]}}