{"Citation":{"eSourceType":"Original","sTitle":"Thermal behavior of 1,3,5-trinitroso-1,3,5-triazinane and its melt-castable mixtures with cyclic nitramines","sDOI":"10.1016/j.tca.2015.07.010","sAbstract":"Mixtures of 1,3,5-trinitroso-1,3,5-triazinane (TMTA) with 1,3,5-trinitro-1,3,5-triazinane (RDX), cis-1,3,4,6-tetranitro-octahydroimidazo-[4,5-d]imidazole (BCHMX) and ?-2,4,6,8,10,12-hexanitro-2,4,6,8,10,12-hexaazaisowurtzitane (CL-20), respectively, have been investigated by DSC and TGA techniques. It has been found that there are two endothermic peaks at about 96 deg C and 107 deg C, due to polymorphic transition and melting of TMTA, whereas only small endothermic peaks were observed in the temperature region of 92.8 95.0 deg C for mixtures of RDX-TMTA, BCHMX-TMTA and CL-20-TMTA. These differences in exothermic temperatures of the pristine TMTA versus its mixtures could be a result of co-crystals formation. Moreover, only one complex step for decomposition of TMTA and RDX-TMTA was observed, while at least two steps were found for BCHMX-TMTA and CL-20-TMTA mixtures. TGA measurements showed that a mass loss of TMTA begins at 89.3 deg C and has a peak temperature of 185.9 deg C. In contrast, the mass loss of RDX-TMTA mixture begins at 142.9 deg C and has a peak temperature of 227.6 deg C, evidently showing a behavior of a single compound. On the other hand, the activation parameters for the first step decomposition of the BCHMX-TMTA (2.355 J g-1) and CL-20-TMTA mixtures were found to be very close to that of TMTA (1.320 J g-1), strongly indicating that most probably TMTA undergoes decomposes during the first decomposition steps of these mixtures.","TRCRefID":{"sAuthor2":"yan","sAuthor1":"zem","tml_elements":["yrYrPub","sAuthor1","sAuthor2","nAuthorn"],"nAuthorn":"0","yrYrPub":"2015"},"sKeyword":["1,3,5-Trinitroso-1,3,5-triazinane","1,3,5-Trinitro-1,3,5-triazinane","Cis-1,3,4,6-tetranitro-octahydro-imidazo-[4,5-d]imidazole","epsilon-2,4,6,8,10,12-Hexanitro-2,4,6,8,10,12-Hexaazaisowurtzitane","Thermal decomposition"],"sAuthor":["Zeman, S.[Svatopluk]","Yan, Q.-L.[Qi-Long]","Gozin, M.[Michael]","Zhao, F.-Q.[Feng-Qi]","Akstein, Z.[Zbynek]"],"tml_elements":["TRCRefID","eType","eSourceType","sAuthor","sPubName","yrPubYr","dateCit","sTitle","sAbstract","sKeyword","sDOI","sVol","sPage"],"sPubName":"Thermochim. Acta","yrPubYr":"2015","dateCit":"2020-09-29","sPage":"51-60","eType":"journal","sVol":"615"},"Compound":[{"sFormulaMolec":"C3H6N6O6","Sample":[{"tml_elements":["nSampleNm","eStatus","purity"],"eStatus":"notDescribed","purity":[],"nSampleNm":1}],"tml_elements":["RegNum","sStandardInChI","sStandardInChIKey","sCommonName","sFormulaMolec","Sample"],"sCommonName":["1,3,5-triaza-1,3,5-trinitrocyclohexane","1,3,5-triazine, hexahydro-1,3,5-trinitro","1,3,5-trinitro-1,3,5-triazacyclohexane","1,3,5-trinitrohexahydro-1,3,5-triazine","1,3,5-trinitrohexahydro-s-triazine","1,3,5-trinitroperhydro-1,3,5-triazine","RDX","cyclonite","cyclotrimethylenenitramine","cyclotrimethylenetrinitramine","hexahydro-1,3,5-trinitro-1,3,5-triazine","hexahydro-1,3,5-trinitro-s-triazine","s-triazine, hexahydro-1,3,5-trinitro-","trimethylenetrinitramine"],"RegNum":{"nOrgNum":1,"tml_elements":["nOrgNum"]},"sStandardInChI":"InChI=1S/C3H6N6O6/c10-7(11)4-1-5(8(12)13)3-6(2-4)9(14)15/h1-3H2","sStandardInChIKey":"XTFIVUDBNACUBN-UHFFFAOYSA-N"},{"sStandardInChI":"InChI=1S/C3H6N6O3/c10-4-7-1-8(5-11)3-9(2-7)6-12/h1-3H2","RegNum":{"nOrgNum":2,"tml_elements":["nOrgNum"]},"sStandardInChIKey":"HFWOSHMLDRSIDN-UHFFFAOYSA-N","Sample":[{"purity":[],"tml_elements":["nSampleNm","eSource","purity"],"nSampleNm":1,"eSource":"Synthesized by the authors"}],"tml_elements":["RegNum","sStandardInChI","sStandardInChIKey","sCommonName","sFormulaMolec","Sample"],"sCommonName":["1,3,5-trinitroso-1,3,5-triazacyclohexane","TNOHX","s-triazine, hexahydro-1,3,5-trinitroso-"],"sFormulaMolec":"C3H6N6O3"},{"Sample":[{"tml_elements":["nSampleNm","eStatus","purity"],"eStatus":"notDescribed","purity":[],"nSampleNm":1}],"sCommonName":["2,4,6,8,10,12-hexanitro-2,4,6,8,10,12-hexaazaisowurtzitane","2,4,6,8,10,12-hexanitro-2,4,6,8,10,12-hexaazatetracyclo[5.5.0.0(5,9).0(3,11)]dodecane"],"tml_elements":["RegNum","sStandardInChI","sStandardInChIKey","sCommonName","sFormulaMolec","Sample"],"sFormulaMolec":"C6H6N12O12","sStandardInChI":"InChI=1S/C6H6N12O12/c19-13(20)7-1-2-8(14(21)22)5(7)6-9(15(23)24)3(11(1)17(27)28)4(10(6)16(25)26)12(2)18(29)30/h1-6H","RegNum":{"nOrgNum":3,"tml_elements":["nOrgNum"]},"sStandardInChIKey":"NDYLCHGXSQOGMS-UHFFFAOYSA-N"}],"THERMOML_MD5_CHECKSUM":"327e99bd0c3466ad883250d74bf71fe1","PureOrMixtureData":[{"Component":[{"tml_elements":["RegNum","nSampleNm"],"nSampleNm":1,"RegNum":{"nOrgNum":1,"tml_elements":["nOrgNum"]}}],"tml_elements":["nPureOrMixtureDataNumber","Component","eExpPurpose","sCompiler","sContributor","dateDateAdded","Property","PhaseID","NumValues"],"PhaseID":[{"ePhase":"Crystal","tml_elements":["ePhase"]},{"tml_elements":["ePhase"],"ePhase":"Liquid"},{"tml_elements":["ePhase"],"ePhase":"Air at 1 atmosphere"}],"sContributor":"TRC","eExpPurpose":"Principal objective of the work","Property":[{"CombinedUncertainty":{"nCombUncertAssessNum":1,"sCombUncertEvaluator":"Data file compiler","tml_elements":["nCombUncertAssessNum","sCombUncertEvaluator","eCombUncertEvalMethod","nCombUncertLevOfConfid"],"nCombUncertLevOfConfid":95,"eCombUncertEvalMethod":"Propagation of evaluated standard uncertainties"},"nPropNumber":1,"PropPhaseID":{"tml_elements":["ePropPhase"],"ePropPhase":"Crystal"},"Property-MethodID":{"PropertyGroup":{"PhaseTransition":{"ePropName":"Triple point temperature, K","sMethodName":"DTA:UFactor:4","tml_elements":["ePropName","sMethodName"]},"tml_elements":["PhaseTransition"]},"tml_elements":["PropertyGroup"]},"tml_elements":["nPropNumber","Property-MethodID","PropPhaseID","ePresentation","CombinedUncertainty"],"ePresentation":"Direct value, X"}],"NumValues":[{"PropertyValue":[{"tml_elements":["nPropNumber","nPropValue","nPropDigits","CombinedUncertainty"],"nPropDigits":4,"nPropNumber":1,"nPropValue":478.95,"CombinedUncertainty":{"nCombUncertAssessNum":1,"nCombExpandUncertValue":2,"tml_elements":["nCombUncertAssessNum","nCombExpandUncertValue"]}}],"tml_elements":["PropertyValue"],"VariableValue":[]}],"dateDateAdded":"8/19/2015","nPureOrMixtureDataNumber":1,"sCompiler":"AB"},{"NumValues":[{"VariableValue":[],"tml_elements":["PropertyValue"],"PropertyValue":[{"nPropValue":369.25,"CombinedUncertainty":{"nCombExpandUncertValue":2,"tml_elements":["nCombUncertAssessNum","nCombExpandUncertValue"],"nCombUncertAssessNum":1},"nPropDigits":3,"nPropNumber":1,"tml_elements":["nPropNumber","nPropValue","nPropDigits","CombinedUncertainty"]}]}],"sCompiler":"AB","dateDateAdded":"8/19/2015","nPureOrMixtureDataNumber":2,"Property":[{"PropPhaseID":{"ePropPhase":"Crystal 2","tml_elements":["ePropPhase"]},"nPropNumber":1,"ePresentation":"Direct value, X","tml_elements":["nPropNumber","Property-MethodID","PropPhaseID","ePresentation","CombinedUncertainty"],"Property-MethodID":{"tml_elements":["PropertyGroup"],"PropertyGroup":{"PhaseTransition":{"sMethodName":"DTA:UFactor:4","ePropName":"Triple point temperature, K","tml_elements":["ePropName","sMethodName"]},"tml_elements":["PhaseTransition"]}},"CombinedUncertainty":{"sCombUncertEvaluator":"Data file compiler","nCombUncertAssessNum":1,"nCombUncertLevOfConfid":95,"eCombUncertEvalMethod":"Propagation of evaluated standard uncertainties","tml_elements":["nCombUncertAssessNum","sCombUncertEvaluator","eCombUncertEvalMethod","nCombUncertLevOfConfid"]}}],"eExpPurpose":"Principal objective of the work","sContributor":"TRC","Component":[{"nSampleNm":1,"RegNum":{"tml_elements":["nOrgNum"],"nOrgNum":2},"tml_elements":["RegNum","nSampleNm"]}],"PhaseID":[{"tml_elements":["ePhase"],"ePhase":"Crystal 2"},{"tml_elements":["ePhase"],"ePhase":"Crystal 1"},{"tml_elements":["ePhase"],"ePhase":"Air at 1 atmosphere"}],"tml_elements":["nPureOrMixtureDataNumber","Component","eExpPurpose","sCompiler","sContributor","dateDateAdded","Property","PhaseID","NumValues"]},{"Component":[{"RegNum":{"tml_elements":["nOrgNum"],"nOrgNum":2},"nSampleNm":1,"tml_elements":["RegNum","nSampleNm"]}],"PhaseID":[{"tml_elements":["ePhase"],"ePhase":"Crystal 1"},{"tml_elements":["ePhase"],"ePhase":"Liquid"},{"tml_elements":["ePhase"],"ePhase":"Air at 1 atmosphere"}],"tml_elements":["nPureOrMixtureDataNumber","Component","eExpPurpose","sCompiler","sContributor","dateDateAdded","Property","PhaseID","NumValues"],"sContributor":"TRC","eExpPurpose":"Principal objective of the work","Property":[{"CombinedUncertainty":{"nCombUncertAssessNum":1,"sCombUncertEvaluator":"Data file compiler","tml_elements":["nCombUncertAssessNum","sCombUncertEvaluator","eCombUncertEvalMethod","nCombUncertLevOfConfid"],"nCombUncertLevOfConfid":95,"eCombUncertEvalMethod":"Propagation of evaluated standard uncertainties"},"nPropNumber":1,"Property-MethodID":{"tml_elements":["PropertyGroup"],"PropertyGroup":{"PhaseTransition":{"sMethodName":"DTA:UFactor:4","ePropName":"Triple point temperature, K","tml_elements":["ePropName","sMethodName"]},"tml_elements":["PhaseTransition"]}},"PropPhaseID":{"tml_elements":["ePropPhase"],"ePropPhase":"Crystal 1"},"tml_elements":["nPropNumber","Property-MethodID","PropPhaseID","ePresentation","CombinedUncertainty"],"ePresentation":"Direct value, X"}],"NumValues":[{"VariableValue":[],"tml_elements":["PropertyValue"],"PropertyValue":[{"nPropValue":380.15,"CombinedUncertainty":{"nCombUncertAssessNum":1,"nCombExpandUncertValue":2,"tml_elements":["nCombUncertAssessNum","nCombExpandUncertValue"]},"nPropDigits":4,"nPropNumber":1,"tml_elements":["nPropNumber","nPropValue","nPropDigits","CombinedUncertainty"]}]}],"sCompiler":"AB","dateDateAdded":"8/19/2015","nPureOrMixtureDataNumber":3},{"NumValues":[{"VariableValue":[],"PropertyValue":[{"nPropDigits":4,"nPropNumber":1,"tml_elements":["nPropNumber","nPropValue","nPropDigits","CombinedUncertainty"],"nPropValue":432.75,"CombinedUncertainty":{"tml_elements":["nCombUncertAssessNum","nCombExpandUncertValue"],"nCombExpandUncertValue":2,"nCombUncertAssessNum":1}}],"tml_elements":["PropertyValue"]}],"sCompiler":"AB","nPureOrMixtureDataNumber":4,"dateDateAdded":"8/19/2015","Property":[{"tml_elements":["nPropNumber","Property-MethodID","PropPhaseID","ePresentation","CombinedUncertainty"],"ePresentation":"Direct value, X","nPropNumber":1,"PropPhaseID":{"tml_elements":["ePropPhase"],"ePropPhase":"Crystal 2"},"CombinedUncertainty":{"nCombUncertAssessNum":1,"sCombUncertEvaluator":"Data file compiler","tml_elements":["nCombUncertAssessNum","sCombUncertEvaluator","eCombUncertEvalMethod","nCombUncertLevOfConfid"],"nCombUncertLevOfConfid":95,"eCombUncertEvalMethod":"Propagation of evaluated standard uncertainties"},"Property-MethodID":{"tml_elements":["PropertyGroup"],"PropertyGroup":{"PhaseTransition":{"tml_elements":["ePropName","sMethodName"],"ePropName":"Triple point temperature, K","sMethodName":"DTA:UFactor:4"},"tml_elements":["PhaseTransition"]}}}],"eExpPurpose":"Principal objective of the work","sContributor":"TRC","Component":[{"nSampleNm":1,"RegNum":{"nOrgNum":3,"tml_elements":["nOrgNum"]},"tml_elements":["RegNum","nSampleNm"]}],"PhaseID":[{"ePhase":"Crystal 2","tml_elements":["ePhase"]},{"ePhase":"Crystal 1","tml_elements":["ePhase"]},{"ePhase":"Air at 1 atmosphere","tml_elements":["ePhase"]}],"tml_elements":["nPureOrMixtureDataNumber","Component","eExpPurpose","sCompiler","sContributor","dateDateAdded","Property","PhaseID","NumValues"]},{"sContributor":"TRC","Component":[{"nSampleNm":1,"RegNum":{"nOrgNum":3,"tml_elements":["nOrgNum"]},"tml_elements":["RegNum","nSampleNm"]}],"tml_elements":["nPureOrMixtureDataNumber","Component","eExpPurpose","sCompiler","sContributor","dateDateAdded","Property","PhaseID","NumValues"],"PhaseID":[{"tml_elements":["ePhase"],"ePhase":"Crystal 2"},{"ePhase":"Crystal 1","tml_elements":["ePhase"]},{"tml_elements":["ePhase"],"ePhase":"Air at 1 atmosphere"}],"NumValues":[{"VariableValue":[],"PropertyValue":[{"nPropValue":5.433500448,"CombinedUncertainty":{"tml_elements":["nCombUncertAssessNum","nCombExpandUncertValue"],"nCombExpandUncertValue":0.964008144,"nCombUncertAssessNum":1},"nPropNumber":1,"nPropDigits":3,"tml_elements":["nPropNumber","nPropValue","nPropDigits","CombinedUncertainty"]}],"tml_elements":["PropertyValue"]}],"dateDateAdded":"8/19/2015","nPureOrMixtureDataNumber":5,"sCompiler":"AB","eExpPurpose":"Principal objective of the work","Property":[{"ePresentation":"Direct value, X","tml_elements":["nPropNumber","Property-MethodID","PropPhaseID","ePresentation","CombinedUncertainty"],"PropPhaseID":{"tml_elements":["ePropPhase"],"ePropPhase":"Crystal 2"},"nPropNumber":1,"CombinedUncertainty":{"nCombUncertAssessNum":1,"sCombUncertEvaluator":"Data file compiler","tml_elements":["nCombUncertAssessNum","sCombUncertEvaluator","eCombUncertEvalMethod","nCombUncertLevOfConfid"],"eCombUncertEvalMethod":"Propagation of evaluated standard uncertainties","nCombUncertLevOfConfid":95},"Property-MethodID":{"PropertyGroup":{"PhaseTransition":{"tml_elements":["ePropName","sMethodName"],"ePropName":"Molar enthalpy of transition or fusion, kJ/mol","sMethodName":"DSC:UFactor:4"},"tml_elements":["PhaseTransition"]},"tml_elements":["PropertyGroup"]}}]}],"tml_elements":["Version","Citation","Compound","PureOrMixtureData"],"Version":{"nVersionMinor":0,"nVersionMajor":2,"tml_elements":["nVersionMajor","nVersionMinor"]}}