{"THERMOML_MD5_CHECKSUM":"7ef6d7bd597e5ad7941493705c12ada8","Compound":[{"tml_elements":["RegNum","sStandardInChI","sStandardInChIKey","sCommonName","sFormulaMolec"],"sCommonName":["water"],"sFormulaMolec":"H2O","sStandardInChI":"InChI=1S/H2O/h1H2","RegNum":{"nOrgNum":1,"tml_elements":["nOrgNum"]},"sStandardInChIKey":"XLYOFNOQVPJJNP-UHFFFAOYSA-N"},{"sFormulaMolec":"C2H5NO2","Sample":[{"eSource":"Commercial source","nSampleNm":1,"tml_elements":["nSampleNm","eSource","purity"],"purity":[{"nUnknownPerCent":99,"nUnknownPerCentDigits":2,"eAnalMeth":["Stated by supplier"],"tml_elements":["nStep","nUnknownPerCent","nUnknownPerCentDigits","eAnalMeth"],"nStep":1},{"ePurifMethod":["Dried by vacuum heating"],"tml_elements":["nStep","ePurifMethod"],"nStep":2}]}],"tml_elements":["RegNum","sStandardInChI","sStandardInChIKey","sCommonName","sFormulaMolec","Sample"],"sCommonName":["2-aminoacetic acid","aminoacetic acid","aminoethanoic acid","glycine"],"RegNum":{"nOrgNum":2,"tml_elements":["nOrgNum"]},"sStandardInChI":"InChI=1S/C2H5NO2/c3-1-2(4)5/h1,3H2,(H,4,5)","sStandardInChIKey":"DHMQDGOQFOQNFH-UHFFFAOYSA-N"},{"sCommonName":["DL-2-aminopropanoic acid","DL-alanine","dl-2-aminopropanoic acid"],"Sample":[{"tml_elements":["nSampleNm","eSource","purity"],"purity":[{"eAnalMeth":["Stated by supplier"],"tml_elements":["nStep","nUnknownPerCent","nUnknownPerCentDigits","eAnalMeth"],"nStep":1,"nUnknownPerCent":99,"nUnknownPerCentDigits":2},{"ePurifMethod":["Dried by vacuum heating"],"nStep":2,"tml_elements":["nStep","ePurifMethod"]}],"eSource":"Commercial source","nSampleNm":1}],"tml_elements":["RegNum","sStandardInChI","sStandardInChIKey","sCommonName","sFormulaMolec","Sample"],"sFormulaMolec":"C3H7NO2","sStandardInChI":"InChI=1S/C3H7NO2/c1-2(4)3(5)6/h2H,4H2,1H3,(H,5,6)","RegNum":{"nOrgNum":3,"tml_elements":["nOrgNum"]},"sStandardInChIKey":"QNAYBMKLOCPYGJ-UHFFFAOYSA-N"},{"sFormulaMolec":"Cl3H12NdO6","Sample":[{"tml_elements":["nSampleNm","eSource","purity"],"purity":[{"nUnknownPerCentDigits":3,"nUnknownPerCent":99.5,"eAnalMeth":["Stated by supplier"],"nStep":1,"tml_elements":["nStep","nUnknownPerCent","nUnknownPerCentDigits","eAnalMeth"]},{"nStep":2,"tml_elements":["nStep","ePurifMethod"],"ePurifMethod":["Dried in a desiccator"]}],"eSource":"Commercial source","nSampleNm":1}],"sCommonName":["neodymium trichloride hexahydrate"],"tml_elements":["RegNum","sStandardInChI","sStandardInChIKey","sCommonName","sFormulaMolec","Sample"],"sStandardInChIKey":"PCORICZHGNSNIZ-UHFFFAOYSA-K","sStandardInChI":"InChI=1S/3ClH.Nd.6H2O/h3*1H;;6*1H2/q;;;+3;;;;;;/p-3","RegNum":{"tml_elements":["nOrgNum"],"nOrgNum":4}},{"sCommonName":["neodymium tris-L-alanine bis-glycine trichloride dihydrate"],"tml_elements":["RegNum","sStandardInChI","sStandardInChIKey","sCommonName","sFormulaMolec","Sample"],"Sample":[{"eSource":"Synthesized by the authors","nSampleNm":1,"purity":[{"tml_elements":["nStep","ePurifMethod","ePurifMethod"],"nStep":1,"ePurifMethod":["Crystallization from solution","Dried in a desiccator"]},{"nUnknownPerCent":99.56,"nUnknownPerCentDigits":4,"tml_elements":["nStep","nUnknownPerCent","nUnknownPerCentDigits","eAnalMeth"],"nStep":2,"eAnalMeth":["Chemical analysis"]}],"tml_elements":["nSampleNm","eSource","purity"]}],"sFormulaMolec":"C13H35Cl3N5NdO12","sStandardInChIKey":"FOLKNUSTWHHNQT-KXAAMTCKSA-K","RegNum":{"nOrgNum":5,"tml_elements":["nOrgNum"]},"sStandardInChI":"InChI=1S/3C3H7NO2.2C2H5NO2.3ClH.Nd.2H2O/c3*1-2(4)3(5)6;2*3-1-2(4)5;;;;;;/h3*2H,4H2,1H3,(H,5,6);2*1,3H2,(H,4,5);3*1H;;2*1H2/q;;;;;;;;+3;;/p-3/t3*2-;;;;;;;;/m000......../s1"}],"Citation":{"dateCit":"2020-09-29","sIDNum":"1-2","yrPubYr":"2005","sPubName":"Thermochim. Acta","eType":"journal","sVol":"425","sPage":"27-30","eSourceType":"Original","sAuthor":["Qiangguo, L.[Li]","Xu, L.[Li]","Lijuan, Y.[Ye]","Dejun, Y.[Yang]","Yi, L.[Liu]"],"sKeyword":["Neodymium chloride six-hydrate","Glycinee","Alanine","Thermochemistry","Standard molar enthalpy of formation"],"tml_elements":["TRCRefID","eType","eSourceType","sAuthor","sPubName","yrPubYr","dateCit","sTitle","sAbstract","sKeyword","sDOI","sIDNum","sVol","sPage"],"sTitle":"Standard molar enthalpy of formation of Nd(Gly)2(Ala)3Cl3*2H2O(s)","sDOI":"10.1016/j.tca.2004.05.030","TRCRefID":{"tml_elements":["yrYrPub","sAuthor1","sAuthor2","nAuthorn"],"nAuthorn":"0","sAuthor2":"xu","sAuthor1":"qia","yrYrPub":"2005"},"sAbstract":"The mixed complex of Nd3+ with glycine and alanine, Nd(Gly)2(Ala)3Cl3*2H2O, was synthesized and characterized by IR, elementary analysis, thermogravimatric analysis and chemical analysis, and the dissolution enthalpies of NdCl3*6H2O(s), 2Gly(s) + 3Ala(s) and Nd(Gly)2(Ala)3Cl3*2H2O(s) were determined in 2 mol/L HCl by the classical solution calorimetry. By designing a thermochemical cycle according to Hess  law and through calculation, we obtained the reaction enthalpy of neodymium chloride six-hydrate with glycine and alanine: ?rH.m(298.15K) = 37.24 +- 0.299 kJ/mol, and the standard enthalpy of formation of Nd(Gly)2(Ala)3Cl3*2H2O(s): ?fH.m[Nd(Gly)2(Ala)3Cl3*2H2O, s, 298.15 K]= -4441.6 +- 8.262 kJ/mol."},"tml_elements":["Version","Citation","Compound","ReactionData"],"ReactionData":[{"sContributor":"TRC","nReactionDataNumber":1,"Participant":[{"ePhase":"Crystal","tml_elements":["RegNum","nSampleNm","nStoichiometricCoef","ePhase"],"RegNum":{"tml_elements":["nOrgNum"],"nOrgNum":2},"nSampleNm":1,"nStoichiometricCoef":"-2"},{"nStoichiometricCoef":"-3","nSampleNm":1,"RegNum":{"nOrgNum":3,"tml_elements":["nOrgNum"]},"tml_elements":["RegNum","nSampleNm","nStoichiometricCoef","ePhase"],"ePhase":"Crystal"},{"tml_elements":["RegNum","nSampleNm","nStoichiometricCoef","ePhase"],"ePhase":"Crystal","nStoichiometricCoef":"1","nSampleNm":1,"RegNum":{"nOrgNum":5,"tml_elements":["nOrgNum"]}},{"nSampleNm":1,"nStoichiometricCoef":"-1","RegNum":{"nOrgNum":4,"tml_elements":["nOrgNum"]},"ePhase":"Crystal","tml_elements":["RegNum","nSampleNm","nStoichiometricCoef","ePhase"]},{"tml_elements":["RegNum","nStoichiometricCoef","ePhase"],"ePhase":"Liquid","RegNum":{"nOrgNum":1,"tml_elements":["nOrgNum"]},"nStoichiometricCoef":"4"}],"tml_elements":["nReactionDataNumber","Participant","eExpPurpose","sCompiler","sContributor","dateDateAdded","eReactionType","Property","NumValues"],"eReactionType":"Other reactions","NumValues":[{"VariableValue":[],"tml_elements":["PropertyValue"],"PropertyValue":[{"tml_elements":["nPropNumber","nPropValue","nPropDigits","CombinedUncertainty"],"nPropDigits":4,"nPropNumber":1,"CombinedUncertainty":{"tml_elements":["nCombUncertAssessNum","nCombExpandUncertValue"],"nCombExpandUncertValue":0.6,"nCombUncertAssessNum":1},"nPropValue":37.24}]}],"dateDateAdded":"3/3/2005","sCompiler":"VVD","eExpPurpose":"Principal objective of the work","Property":[{"nPropNumber":1,"tml_elements":["nPropNumber","Property-MethodID","nTemperature-K","nTemperatureDigits","nPressure-kPa","nPressureDigits","CombinedUncertainty"],"Property-MethodID":{"tml_elements":["PropertyGroup"],"PropertyGroup":{"ReactionStateChangeProp":{"tml_elements":["ePropName","sMethodName"],"ePropName":"Molar enthalpy of reaction, kJ/mol","sMethodName":"OTHER:Method:OTHER:sMethod:Solution calorimetry"},"tml_elements":["ReactionStateChangeProp"]}},"nTemperatureDigits":5,"CombinedUncertainty":{"tml_elements":["nCombUncertAssessNum","sCombUncertEvaluator","eCombUncertEvalMethod","nCombUncertLevOfConfid"],"eCombUncertEvalMethod":"Propagation of evaluated standard uncertainties","nCombUncertLevOfConfid":95,"nCombUncertAssessNum":1,"sCombUncertEvaluator":"Data file compiler"},"nTemperature-K":"298.15","nPressureDigits":4,"nPressure-kPa":"101.3"}]}],"Version":{"nVersionMajor":2,"nVersionMinor":0,"tml_elements":["nVersionMajor","nVersionMinor"]}}