{"THERMOML_MD5_CHECKSUM":"9527f4c0d2e90ab963806ff6f3be1acd","Citation":{"eSourceType":"Original","sAbstract":"High temperature oxide melt solution calorimetry using molten 2PbO*B2O3 at 1078 K and  molten 3Na2O*4MoO3 at 976 K has been applied to determine standard enthalpies of formation,  DfHmdeg (298 K), of Ln2O2CO3 II (Ln = La, Nd, Eu) from their oxide components Ln2O3 and CO2 at 298 K.  Two solvents were applied to cross-check the thermodynamic cycles. Using molten 2PbO*B2O3,  DfHmdeg (298 K) for La2O2CO3 II, Nd2O2CO3 II and Eu2O2CO3 II were found as -198.0 +/- 1.7, -176.2  +/- 3.1 and -151.4 +/- 6.5 kJ*mol-1, respectively. Using molten 3Na2O*4MoO3 the corresponding  values for Nd2O2CO3 II and Eu2O2CO3 II were determined as -176.6 +/- 3.5 and -154.9 +/- 3.2 kJ*mol-  1, respectively. These enthalpies of formation are discussed in view of prior thermodynamic data,  discrepancies are analyzed, and recommended values for enthalpy, entropy and free energy of  formation for La2O2CO3 and Nd2O2CO3 are given.","TRCRefID":{"yrYrPub":"2012","nAuthorn":"0","tml_elements":["yrYrPub","sAuthor1","sAuthor2","nAuthorn"],"sAuthor1":"sja","sAuthor2":"fje"},"sDOI":"10.1016/j.tca.2012.09.036","sTitle":"Enthalpy of Formation of Ln2O2CO3 II (Ln = La, Nd, Eu) and Thermodynamics of Decomposition  Equilibria","tml_elements":["TRCRefID","eType","eSourceType","sAuthor","sPubName","yrPubYr","dateCit","sTitle","sAbstract","sKeyword","sDOI","sVol","sPage"],"sKeyword":["rare earth oxide carbonate","calorimetry","thermodynamic properties","enthalpy of formation."],"sAuthor":["Sjastad, A. O.","Fjellvag, H.","Helean, K. B.","Navrotsky, A.[Alexandra]"],"yrPubYr":"2012","sPubName":"Thermochim. Acta","dateCit":"2020-09-29","sPage":"76-82","eType":"journal","sVol":"550"},"Compound":[{"sStandardInChIKey":"FZLIPJUXYLNCLC-UHFFFAOYSA-N","sStandardInChI":"InChI=1S/La","RegNum":{"nOrgNum":1,"tml_elements":["nOrgNum"]},"sCommonName":["lanthanum"],"tml_elements":["RegNum","sStandardInChI","sStandardInChIKey","sCommonName","sFormulaMolec"],"sFormulaMolec":"La"},{"tml_elements":["RegNum","sCommonName","sFormulaMolec"],"sCommonName":["graphite"],"sFormulaMolec":"C","RegNum":{"tml_elements":["nOrgNum"],"nOrgNum":2}},{"sFormulaMolec":"O2","sCommonName":["oxygen"],"tml_elements":["RegNum","sStandardInChI","sStandardInChIKey","sCommonName","sFormulaMolec"],"sStandardInChIKey":"MYMOFIZGZYHOMD-UHFFFAOYSA-N","RegNum":{"nOrgNum":3,"tml_elements":["nOrgNum"]},"sStandardInChI":"InChI=1S/O2/c1-2"},{"sStandardInChIKey":"QEFYFXOXNSNQGX-UHFFFAOYSA-N","sStandardInChI":"InChI=1S/Nd","RegNum":{"nOrgNum":4,"tml_elements":["nOrgNum"]},"sCommonName":["neodymium"],"tml_elements":["RegNum","sStandardInChI","sStandardInChIKey","sCommonName","sFormulaMolec"],"sFormulaMolec":"Nd"},{"sStandardInChI":"InChI=1S/Eu","RegNum":{"nOrgNum":5,"tml_elements":["nOrgNum"]},"tml_elements":["RegNum","sStandardInChI","sStandardInChIKey","sCommonName","sFormulaMolec"],"sCommonName":["europium"],"sStandardInChIKey":"OGPBJKLSAFTDLK-UHFFFAOYSA-N","sFormulaMolec":"Eu"},{"sStandardInChIKey":"VMVUIGXLELJYAZ-UHFFFAOYSA-L","RegNum":{"tml_elements":["nOrgNum"],"nOrgNum":6},"sStandardInChI":"InChI=1S/CH2O3.2La.2O/c2-1(3)4;;;;/h(H2,2,3,4);;;;/q;2*+3;2*-2/p-2","sFormulaMolec":"CLa2O5","Sample":[{"tml_elements":["nSampleNm","eSource","purity"],"purity":[{"nPurityMass":98,"eAnalMeth":["Estimated by the compiler"],"tml_elements":["nStep","nPurityMass","nPurityMassDigits","eAnalMeth"],"nPurityMassDigits":2,"nStep":1}],"eSource":"Synthesized by the authors","nSampleNm":1}],"tml_elements":["RegNum","sStandardInChI","sStandardInChIKey","sCommonName","sFormulaMolec","Sample"],"sCommonName":["lanthanum carbonate oxide (La2(CO3)O2)","(carbonato)dioxodilanthanum"]},{"sCommonName":["neodymium carbonate oxide (Nd2(CO3)O2)","(carbonato)dioxodineodymium"],"tml_elements":["RegNum","sStandardInChI","sStandardInChIKey","sCommonName","sFormulaMolec","Sample"],"Sample":[{"purity":[{"nStep":1,"nPurityMassDigits":2,"tml_elements":["nStep","nPurityMass","nPurityMassDigits","eAnalMeth"],"nPurityMass":98,"eAnalMeth":["Estimated by the compiler"]}],"tml_elements":["nSampleNm","eSource","purity"],"eSource":"Synthesized by the authors","nSampleNm":1}],"sFormulaMolec":"CNd2O5","RegNum":{"nOrgNum":7,"tml_elements":["nOrgNum"]},"sStandardInChI":"InChI=1S/CH2O3.2Nd.2O/c2-1(3)4;;;;/h(H2,2,3,4);;;;/q;2*+3;2*-2/p-2","sStandardInChIKey":"GQJRNUQRTVLDSG-UHFFFAOYSA-L"},{"sFormulaMolec":"CEu2O5","sCommonName":["europium carbonate oxide (Eu2(CO3)O2)"],"Sample":[{"purity":[{"nStep":1,"tml_elements":["nStep","nPurityMass","nPurityMassDigits","eAnalMeth"],"nPurityMassDigits":2,"nPurityMass":98,"eAnalMeth":["Estimated by the compiler"]}],"tml_elements":["nSampleNm","eSource","purity"],"eSource":"Synthesized by the authors","nSampleNm":1}],"tml_elements":["RegNum","sStandardInChI","sStandardInChIKey","sCommonName","sFormulaMolec","Sample"],"RegNum":{"tml_elements":["nOrgNum"],"nOrgNum":8},"sStandardInChI":"InChI=1S/CH2O3.2Eu.2O/c2-1(3)4;;;;/h(H2,2,3,4);;;;/q;2*+3;2*-2/p-2","sStandardInChIKey":"AIUDNCKNCVYPGL-UHFFFAOYSA-L"}],"tml_elements":["Version","Citation","Compound","ReactionData"],"ReactionData":[{"dateDateAdded":"4/24/2012","sCompiler":"VVD","NumValues":[{"PropertyValue":[{"CombinedUncertainty":{"nCombUncertAssessNum":1,"tml_elements":["nCombUncertAssessNum","nCombExpandUncertValue"],"nCombExpandUncertValue":12},"nPropValue":-198,"nPropNumber":1,"nPropDigits":3,"tml_elements":["nPropNumber","nPropValue","nPropDigits","CombinedUncertainty"]}],"tml_elements":["PropertyValue"],"VariableValue":[]}],"eExpPurpose":"Principal objective of the work","Property":[{"tml_elements":["nPropNumber","Property-MethodID","nTemperature-K","nTemperatureDigits","nPressure-kPa","nPressureDigits","CombinedUncertainty"],"nPropNumber":1,"nTemperatureDigits":3,"Property-MethodID":{"PropertyGroup":{"tml_elements":["ReactionStateChangeProp"],"ReactionStateChangeProp":{"ePropName":"Molar enthalpy of reaction, kJ/mol","sMethodName":"drop calorimetry","tml_elements":["ePropName","sMethodName"]}},"tml_elements":["PropertyGroup"]},"nPressure-kPa":"101.3","nPressureDigits":4,"CombinedUncertainty":{"nCombUncertLevOfConfid":95,"eCombUncertEvalMethod":"Propagation of evaluated standard uncertainties","tml_elements":["nCombUncertAssessNum","sCombUncertEvaluator","eCombUncertEvalMethod","nCombUncertLevOfConfid"],"sCombUncertEvaluator":"Data file compiler","nCombUncertAssessNum":1},"nTemperature-K":"298"}],"nReactionDataNumber":1,"sContributor":"XXX","Participant":[{"nStoichiometricCoef":"-2","RegNum":{"nOrgNum":1,"tml_elements":["nOrgNum"]},"tml_elements":["RegNum","nStoichiometricCoef","ePhase"],"ePhase":"Crystal"},{"ePhase":"Crystal","tml_elements":["RegNum","nSampleNm","nStoichiometricCoef","ePhase"],"RegNum":{"tml_elements":["nOrgNum"],"nOrgNum":6},"nSampleNm":1,"nStoichiometricCoef":"1"},{"nStoichiometricCoef":"-1","RegNum":{"tml_elements":["nOrgNum"],"nOrgNum":2},"tml_elements":["RegNum","nStoichiometricCoef","ePhase"],"ePhase":"Crystal"},{"RegNum":{"nOrgNum":3,"tml_elements":["nOrgNum"]},"nStoichiometricCoef":"-2.5","tml_elements":["RegNum","nStoichiometricCoef","ePhase"],"ePhase":"Gas"}],"tml_elements":["nReactionDataNumber","Participant","eExpPurpose","sCompiler","sContributor","dateDateAdded","eReactionType","Property","NumValues"],"eReactionType":"Formation of a compound from elements in their stable state"},{"nReactionDataNumber":2,"sContributor":"XXX","eReactionType":"Formation of a compound from elements in their stable state","tml_elements":["nReactionDataNumber","Participant","eExpPurpose","sCompiler","sContributor","dateDateAdded","eReactionType","Property","NumValues"],"Participant":[{"tml_elements":["RegNum","nStoichiometricCoef","ePhase"],"ePhase":"Crystal","RegNum":{"tml_elements":["nOrgNum"],"nOrgNum":4},"nStoichiometricCoef":"-2"},{"ePhase":"Crystal","tml_elements":["RegNum","nSampleNm","nStoichiometricCoef","ePhase"],"nSampleNm":1,"nStoichiometricCoef":"1","RegNum":{"nOrgNum":7,"tml_elements":["nOrgNum"]}},{"RegNum":{"tml_elements":["nOrgNum"],"nOrgNum":2},"nStoichiometricCoef":"-1","tml_elements":["RegNum","nStoichiometricCoef","ePhase"],"ePhase":"Crystal"},{"ePhase":"Gas","tml_elements":["RegNum","nStoichiometricCoef","ePhase"],"nStoichiometricCoef":"-2.5","RegNum":{"nOrgNum":3,"tml_elements":["nOrgNum"]}}],"sCompiler":"VVD","dateDateAdded":"4/24/2012","NumValues":[{"VariableValue":[],"PropertyValue":[{"CombinedUncertainty":{"nCombUncertAssessNum":1,"nCombExpandUncertValue":14.8,"tml_elements":["nCombUncertAssessNum","nCombExpandUncertValue"]},"nPropValue":-176.4,"tml_elements":["nPropNumber","nPropValue","nPropDigits","CombinedUncertainty"],"nPropDigits":4,"nPropNumber":1}],"tml_elements":["PropertyValue"]}],"eExpPurpose":"Principal objective of the work","Property":[{"nPropNumber":1,"tml_elements":["nPropNumber","Property-MethodID","nTemperature-K","nTemperatureDigits","nPressure-kPa","nPressureDigits","CombinedUncertainty"],"CombinedUncertainty":{"sCombUncertEvaluator":"Data file compiler","nCombUncertAssessNum":1,"eCombUncertEvalMethod":"Propagation of evaluated standard uncertainties","nCombUncertLevOfConfid":95,"tml_elements":["nCombUncertAssessNum","sCombUncertEvaluator","eCombUncertEvalMethod","nCombUncertLevOfConfid"]},"nTemperature-K":"298","nPressure-kPa":"101.3","nPressureDigits":4,"Property-MethodID":{"PropertyGroup":{"tml_elements":["ReactionStateChangeProp"],"ReactionStateChangeProp":{"ePropName":"Molar enthalpy of reaction, kJ/mol","sMethodName":"drop calorimetry","tml_elements":["ePropName","sMethodName"]}},"tml_elements":["PropertyGroup"]},"nTemperatureDigits":3}]},{"nReactionDataNumber":3,"sContributor":"XXX","Participant":[{"nStoichiometricCoef":"1","nSampleNm":1,"RegNum":{"nOrgNum":8,"tml_elements":["nOrgNum"]},"tml_elements":["RegNum","nSampleNm","nStoichiometricCoef","ePhase"],"ePhase":"Crystal"},{"ePhase":"Crystal","tml_elements":["RegNum","nStoichiometricCoef","ePhase"],"RegNum":{"nOrgNum":5,"tml_elements":["nOrgNum"]},"nStoichiometricCoef":"-2"},{"ePhase":"Crystal","tml_elements":["RegNum","nStoichiometricCoef","ePhase"],"RegNum":{"tml_elements":["nOrgNum"],"nOrgNum":2},"nStoichiometricCoef":"-1"},{"RegNum":{"nOrgNum":3,"tml_elements":["nOrgNum"]},"nStoichiometricCoef":"-2.5","ePhase":"Gas","tml_elements":["RegNum","nStoichiometricCoef","ePhase"]}],"tml_elements":["nReactionDataNumber","Participant","eExpPurpose","sCompiler","sContributor","dateDateAdded","eReactionType","Property","NumValues"],"eReactionType":"Formation of a compound from elements in their stable state","dateDateAdded":"4/24/2012","sCompiler":"VVD","NumValues":[{"tml_elements":["PropertyValue"],"PropertyValue":[{"nPropValue":-153.2,"CombinedUncertainty":{"nCombExpandUncertValue":32.5,"tml_elements":["nCombUncertAssessNum","nCombExpandUncertValue"],"nCombUncertAssessNum":1},"tml_elements":["nPropNumber","nPropValue","nPropDigits","CombinedUncertainty"],"nPropNumber":1,"nPropDigits":4}],"VariableValue":[]}],"Property":[{"CombinedUncertainty":{"sCombUncertEvaluator":"Data file compiler","nCombUncertAssessNum":1,"nCombUncertLevOfConfid":95,"eCombUncertEvalMethod":"Propagation of evaluated standard uncertainties","tml_elements":["nCombUncertAssessNum","sCombUncertEvaluator","eCombUncertEvalMethod","nCombUncertLevOfConfid"]},"nTemperature-K":"298","nPressureDigits":4,"nPressure-kPa":"101.3","Property-MethodID":{"tml_elements":["PropertyGroup"],"PropertyGroup":{"tml_elements":["ReactionStateChangeProp"],"ReactionStateChangeProp":{"tml_elements":["ePropName","sMethodName"],"ePropName":"Molar enthalpy of reaction, kJ/mol","sMethodName":"drop calorimetry"}}},"nTemperatureDigits":3,"nPropNumber":1,"tml_elements":["nPropNumber","Property-MethodID","nTemperature-K","nTemperatureDigits","nPressure-kPa","nPressureDigits","CombinedUncertainty"]}],"eExpPurpose":"Principal objective of the work"}],"Version":{"tml_elements":["nVersionMajor","nVersionMinor"],"nVersionMajor":2,"nVersionMinor":0}}