"SMILES","CASRN","EXTERNALID","N","NAME","Melting Point","UNIT {Melting Point}","Melting Point {measured, converted}","UNIT {Melting Point}","Dataset","comment (property)","comment (chemical)","measurement method","Pressure","UNIT {Pressure}","Som set numeric condition","UNIT {Som set numeric condition}","Resp set numeric condition","UNIT {Resp set numeric condition}","Quality code","UNIT {Quality code}"
"OC1=C(O)C(=O)C(=O)C1=O","-","-","-","4,5-Dihydroxy-4-cyclopentene-1,2,3-trione","331.0 - 334.0","?C","605.5","K","","","","","","-","","-","","-","","-"
"CCC1OC2=CC=CC=C2C(=O)NC1=O","-","-","-","2-Ethyl-2,3,4,5-tetrahydro-1,4-benzoxazepine-3,5-dione","162.0 - 164.0","?C","436.0","K","","","","","","-","","-","","-","","-"
"ClCC1=CC2=C(O1)C=CC(Br)=C2","-","-","-","5-Bromo-2-chloromethylbenzofuran","63.0 - 64.0","?C","336.5","K","","","","","","-","","-","","-","","-"
"ClS(=O)(=O)C1=CC2=C(O1)C=CC=C2","-","-","-","1-Benzofuran-2-sulfonyl chloride","79.0 - 81.0","?C","353.0","K","","","","","","-","","-","","-","","-"
"[O-][N+](=O)C1=CC=C(CS(Cl)(=O)=O)C=C1","-","-","-","(4-Nitrophenyl)methanesulfonyl chloride","91.0 - 92.0","?C","364.5","K","","","","","","-","","-","","-","","-"
"COC(=O)C1=CC2=C(S1)C=CC(N)=C2","-","-","-","Methyl 5-amino-1-benzothiophene-2-carboxylate","178.0 - 179.0","?C","451.5","K","","","","","","-","","-","","-","","-"
"NC1=C(C#N)C(Cl)=CC=C1","-","-","-","2-Amino-6-chlorobenzonitrile","135.0 - 137.0","?C","409.0","K","","","","","","-","","-","","-","","-"
"BrCC12CC3CC(CC(C3)C1)C2","-","-","-","1-(Bromomethyl)adamantane","30.0 - 32.0","?C","304.0","K","","","","","","-","","-","","-","","-"
"COC(=O)C1=CC2=C(S1)C=CC(Br)=C2","-","-","-","Methyl 5-bromo-1-benzothiophene-2-carboxylate","110.0 - 111.0","?C","383.5","K","","","","","","-","","-","","-","","-"
"NC1=CC=C(CN2CCOCC2)C=C1","-","-","-","4-(Morpholinomethyl)aniline","99.0 - 100.0","?C","372.5","K","","","","","","-","","-","","-","","-"
"CN(N)C1=NC2=CC=CC=C2N=C1","-","-","-","2-(1-Methylhydrazino)quinoxaline","107.0 - 108.0","?C","380.5","K","","","","","","-","","-","","-","","-"
"CC1=C(SC(=N1)C1=CC=C(C=C1)C(F)(F)F)C=O","-","-","-","4-Methyl-2-[4-(trifluoromethyl)phenyl]-1,3-thiazole-5-carbaldehyde","131.0 - 133.0","?C","405.0","K","","","","","","-","","-","","-","","-"
"FC1=CC(F)=C(NC(=O)CCl)C=C1","-","-","-","N1-(2,4-Difluorophenyl)-2-chloroacetamide","79.0 - 81.0","?C","353.0","K","","","","","","-","","-","","-","","-"
"NC1=NC=C(I)C=N1","-","-","-","2-Amino-5-iodopyrimidine","219.0","?C","492.0","K","","","","","","-","","-","","-","","-"
"COC(=O)C1CC(O)CN1C(=O)OC(C)(C)C","-","-","-","N-Boc-trans-4-hydroxy-L-proline methyl ester","91.0 - 96.0","?C","366.5","K","","","","","","-","","-","","-","","-"
"OC(=O)C1=CC=C(C=C1)N=C=S","-","-","-","4-Isothiocyanatobenzoic acid","220.0","?C","493.0","K","","","","","","-","","-","","-","","-"
"O=C1NC(=O)C2CC=CCC12","-","-","-","cis-1,2,3,6-Tetrahydrophthalimide","131.0 - 138.0","?C","407.5","K","","","","","","-","","-","","-","","-"
"COC1=CC=C(C=C(C#N)C#N)C=C1","-","-","-","(4-Methoxybenzylidene)malonitrile","113.0 - 117.0","?C","388.0","K","","","","","","-","","-","","-","","-"
"CC1=C(C)C(C)=C(CO)C(C)=C1C","-","-","-","2,3,4,5,6-Pentamethylbenzyl alcohol","159.0 - 163.0","?C","434.0","K","","","","","","-","","-","","-","","-"
"[O-][N+](=O)CC(=O)C1=CC=CC=C1","-","-","-","benzoylnitromethane","101.0 - 106.0","?C","376.5","K","","","","","","-","","-","","-","","-"
"CC1=CC=C(C=C1)S(=O)(=O)OCCCOS(=O)(=O)C1=CC=C(C)C=C1","-","-","-","1,3-Propanediol di-p-tosylate","90.0 - 93.0","?C","364.5","K","","","","","","-","","-","","-","","-"
"COC1=CC=C(C=C1)C(N)C(N)C1=CC=C(OC)C=C1","-","-","-","meso-1,2-Bis(4-methoxyphenyl)ethylenediamine","148.0 - 152.0","?C","423.0","K","","","","","","-","","-","","-","","-"
"COC1=C(C=CC(=C1)[N+]([O-])=O)N1CCCC1","-","-","-","1-(2-Methoxy-4-nitrophenyl)pyrrolidine","60.0","?C","333.0","K","","","","","","-","","-","","-","","-"
"CC1=CC=C(C=C1)C(N)C(N)C1=CC=C(C)C=C1","-","-","-","meso-1,2-Bis(p-tolyl)ethylenediamine","113.0 - 117.0","?C","388.0","K","","","","","","-","","-","","-","","-"
"NC(C(N)C1=CC=C(F)C=C1)C1=CC=C(F)C=C1","-","-","-","meso-1,2-Bis(4-fluorophenyl)ethylenediamine","100.0 - 104.0","?C","375.0","K","","","","","","-","","-","","-","","-"
"NC(C(N)C1=C2C=CC=CC2=CC=C1)C1=CC=CC2=CC=CC=C12","-","-","-","meso-1,2-Bis(1-naphthyl)ethylenediamine","174.0 - 177.0","?C","448.5","K","","","","","","-","","-","","-","","-"
"N#CC1=CC=C(CN2CCOCC2)C=C1","-","-","-","4-(Morpholinomethyl)benzonitrile","86.0 - 87.0","?C","359.5","K","","","","","","-","","-","","-","","-"
"NC1=CC=C(NC(=O)C2=CC=C(N)C=C2)C=C1","-","-","-","4,4'-Diaminobenzanilide","203.0 - 207.0","?C","478.0","K","","","","","","-","","-","","-","","-"
"CC1(C)C2=CC=CC(P(C3=CC=CC=C3)C3=CC=CC=C3)=C2OC2=C1C=CC=C2P(C1=CC=CC=C1)C1=CC=CC=C1","-","-","-","9,9-Dimethyl-4,5-bis(diphenylphosphino)xanthene","226.0 - 230.0","?C","501.0","K","","","","","","-","","-","","-","","-"
"CN1C=C(C(=N1)C(F)(F)F)S(Cl)(=O)=O","-","-","-","1-Methyl-3-(trifluoromethyl)-1H-pyrazole-4-sulfonyl chloride","34.0 - 36.0","?C","308.0","K","","","","","","-","","-","","-","","-"
"CCOC(=O)C(O)(C1=CC(OC)=C(N)C=C1)C(F)(F)F","-","-","-","Ethyl 2-(4-amino-3-methoxyphenyl)-3,3,3-trifluoro-2-hydroxypropanoate","97.0 - 99.0","?C","371.0","K","","","","","","-","","-","","-","","-"
"CN1N=C(C=C1N)C1=CC=C(Cl)C=C1","-","-","-","3-(4-Chlorophenyl)-1-methyl-1H-pyrazol-5-amine","150.0 - 152.0","?C","424.0","K","","","","","","-","","-","","-","","-"
"CC1=C(SC(=N1)C1=CC=C(C=C1)C(F)(F)F)C(Cl)=O","-","-","-","4-Methyl-2-[4-(trifluoromethyl)phenyl]-1,3-thiazole-5-carbonyl chloride","85.0 - 86.0","?C","358.5","K","","","","","","-","","-","","-","","-"
"CC1=C(C=CC(=N1)C(F)(F)F)C(O)=O","-","-","-","2-Methyl-6-(trifluoromethyl)nicotinic acid","137.0 - 142.0","?C","412.5","K","","","","","","-","","-","","-","","-"
"NCCCC1C=NNC1=O","-","-","-","4-(3-Aminopropyl)-2,4-dihydro-3H-pyrazol-3-one","216.0","?C","489.0","K","","","","","","-","","-","","-","","-"
"NC1=CC=CC=C1C(=O)C1=C(C=CC=C1)C(O)=O","-","-","-","2-Aminobenzophenone-2'-carboxylic acid","196.0 - 200.0","?C","471.0","K","","","","","","-","","-","","-","","-"
"NC1=C(C=CC=C1)S(=O)(=O)C1=CC=CC=C1","-","-","-","2-(Phenylsulfonyl)aniline","118.0 - 122.0","?C","393.0","K","","","","","","-","","-","","-","","-"
"OC(C(=O)C1=CC=CS1)C1=CC=CS1","-","-","-","2-Hydroxy-1,2-di(2-thienyl)ethan-1-one","114.0 - 115.0","?C","387.5","K","","","","","","-","","-","","-","","-"
"OCOCC1CCC(CO)(CO)C1=O","-","-","-","2,2,5,5-Tetrakis(hydroxymethyl)cyclopentanone","142.0 - 144.0","?C","416.0","K","","","","","","-","","-","","-","","-"
"CC(Br)C(=O)C1=CC=C(Br)C=C1","-","-","-","2,4'-Dibromopropiophenone","85.0 - 88.0","?C","359.5","K","","","","","","-","","-","","-","","-"
"CC1=C(Cl)C=C(C(=O)CC(=O)C2=CC=CC=C2)C(O)=C1","-","-","-","1-(5-Chloro-2-hydroxy-4-methylphenyl)-3-phenyl-1,3-propanedione","120.0 - 123.0","?C","394.5","K","","","","","","-","","-","","-","","-"
"CC1=C(C=C(C=C1[N+]([O-])=O)C(O)=O)[N+]([O-])=O","-","-","-","3,5-Dinitro-4-toluic acid","155.0 - 159.0","?C","430.0","K","","","","","","-","","-","","-","","-"
"O=C1OCC2=CC(=CC=C12)C#N","-","-","-","5-Cyanophthalide","201.0 - 205.0","?C","476.0","K","","","","","","-","","-","","-","","-"
"OC(=O)C1=CC=CC2=C1C(=O)C1=C2C=CC=C1","-","-","-","9-FLUORENONE-1-CARBOXYLIC ACID","194.0 - 198.0","?C","469.0","K","","","","","","-","","-","","-","","-"
"CC(C)(C)OC(=O)NC(CC#N)CC1=CC=CC=C1","-","-","-","(S)-N-Boc-2-Amino-3-phenylpropyl cyanide","120.0 - 125.0","?C","395.5","K","","","","","","-","","-","","-","","-"
"CC(C)CC(CC#N)NC(=O)OC(C)(C)C","-","-","-","(S)-N-Boc-2-Amino-4-methylpentyl cyanide","75.0 - 77.0","?C","349.0","K","","","","","","-","","-","","-","","-"
"FC1=C(F)C(F)=C(OC(=O)OC2=C(F)C(F)=C(F)C(F)=C2F)C(F)=C1F","-","-","-","Bis(pentafluorophenyl) carbonate","48.0 - 51.0","?C","322.5","K","","","","","","-","","-","","-","","-"
"O=S(=O)(N1C=CN=C1)N1C=CN=C1","-","-","-","1,1'-Sulfonyldiimidazole","135.0 - 137.0","?C","409.0","K","","","","","","-","","-","","-","","-"
"CCN(CC)C1=CC=C(C=C2CCC(=CC3=CC=C(C=C3)N(CC)CC)C2=O)C=C1","-","-","-","(2E,5E)-2,5-Bis[(4-(diethylamino)phenyl)methylene]cyclopentanone","186.0 - 189.0","?C","460.5","K","","","","","","-","","-","","-","","-"
"CCN(CC)C1=CC=C(C(C2=CC=C(C=C2C)N(CC)CC)C2=CC=C(C=C2C)N(CC)CC)C(C)=C1","-","-","-","Tris(2-methyl-4-diethylaminophenyl)methane","163.0 - 165.0","?C","437.0","K","","","","","","-","","-","","-","","-"
"BrC(C(Br)C1=CC=CC=C1)C(=O)C1=CC=CC=C1","-","-","-","2,3-dibromo-3-phenylpropiophenone","156.0","?C","429.0","K","","","","","","-","","-","","-","","-"
"OCC1=NC=CS1","-","-","-","1,3-Thiazol-2-ylmethanol","62.0 - 64.0","?C","336.0","K","","","","","","-","","-","","-","","-"
"[O-][N+](=O)C1=CC=CN=C1N1CCOCC1","-","-","-","4-(3-Nitro-2-pyridinyl)morpholine","89.0 - 91.0","?C","363.0","K","","","","","","-","","-","","-","","-"
"N#CC1=CC2=C(SC=C2)C=C1","-","-","-","1-Benzothiophene-5-carbonitrile","69.0 - 71.0","?C","343.0","K","","","","","","-","","-","","-","","-"
"CCC1CCC(C)(C)C2=CC=C(Br)C=C12","-","-","-","6-Bromo-1,1,4,4-tetramethyl-1,2,3,4-tetrahydronaphthalene","34.0 - 37.0","?C","308.5","K","","","","","","-","","-","","-","","-"
"CSC1=NC=C(CO)N1CC1=CC=CC=C1","-","-","-","[1-Benzyl-2-(methylsulfanyl)-1H-imidazol-5-yl]methanol","109.0 - 111.0","?C","383.0","K","","","","","","-","","-","","-","","-"
"CC1=C(Br)SC(=N1)C1=CC=CC=C1","-","-","-","5-Bromo-4-methyl-2-phenyl-1,3-thiazole","60.0","?C","333.0","K","","","","","","-","","-","","-","","-"
"[O-][N+](=O)C1=CC=C(CN2CCOCC2)C=C1","-","-","-","4-(4-Nitrobenzyl)morpholine","79.6 - 80.0","?C","352.8","K","","","","","","-","","-","","-","","-"
"N#CC1CNC2=CC=CC=C2O1","-","-","-","3,4-Dihydro-2H-1,4-benzoxazine-2-carbonitrile","63.0","?C","336.0","K","","","","","","-","","-","","-","","-"
"CCOC(=O)C1=C(N)SC=C1C1=CC=CS1","-","-","-","Ethyl 2-amino-4-(2-thienyl)thiophene-3-carboxylate","85.0 - 87.0","?C","359.0","K","","","","","","-","","-","","-","","-"
"CCOC(=O)C1=C2N(N=N1)C1=C(C=CC=C1)C(=O)N2C","-","-","-","Ethyl 4-methyl-5-oxo-4,5-dihydro[1,2,3]triazolo[1,5-a]quinazoline-3-carboxylate","149.0 - 150.0","?C","422.5","K","","","","","","-","","-","","-","","-"
"CCOC(=O)C1=C2N=C(S)C3=C(C=CC=C3)N2N=N1","-","-","-","Ethyl 5-sulfanyl[1,2,3]triazolo[1,5-a]quinazoline-3-carboxylate","171.0 - 172.0","?C","444.5","K","","","","","","-","","-","","-","","-"
"OC(=O)CSCCS(=O)(=O)C1=CC=C(Cl)C=C1","-","-","-","2-({2-[(4-Chlorophenyl)sulfonyl]ethyl}thio)acetic acid","127.0 - 129.0","?C","401.0","K","","","","","","-","","-","","-","","-"
"COC(=O)C1=CC=CC=C1SCC(C)=O","-","-","-","Methyl 2-[(2-oxopropyl)thio]benzoate","60.0 - 61.0","?C","333.5","K","","","","","","-","","-","","-","","-"
"OC(=O)C1=CC(=CN=C1)C1=CC=C(C=O)C=C1","-","-","-","5-(4-Formylphenyl)nicotinic acid","231.0 - 234.0","?C","505.5","K","","","","","","-","","-","","-","","-"
"ClC1=CC=C2SC=C(C=O)C2=C1","-","-","-","5-Chloro-1-benzothiophene-3-carbaldehyde","109.0 - 111.0","?C","383.0","K","","","","","","-","","-","","-","","-"
"CC1=CC=CC(=C1)C(N)=NO","-","-","-","N'-Hydroxy-3-methylbenzenecarboximidamide","143.0 - 146.0","?C","417.5","K","","","","","","-","","-","","-","","-"
"N#CC1=CC2=C(OCCO2)C=C1","-","-","-","2,3-Dihydro-1,4-benzodioxine-6-carbonitrile","104.0 - 106.0","?C","378.0","K","","","","","","-","","-","","-","","-"
"CC1=CC2=C(SC(=C2)C(O)=O)C=C1","-","-","-","5-Methyl-1-benzothiophene-2-carboxylic acid","222.0 - 223.0","?C","495.5","K","","","","","","-","","-","","-","","-"
"ClC(=O)C1=C2C=CC=CN2N=C1","-","-","-","Pyrazolo[1,5-a]pyridine-3-carbonyl chloride","116.0 - 118.0","?C","390.0","K","","","","","","-","","-","","-","","-"
"COC(=O)C1=CC=C(C=C1)N1CCN(CC1)C(=O)OC(C)(C)C","-","-","-","tert-Butyl 4-[4-(methoxycarbonyl)phenyl]tetrahydro-1(2H)-pyrazinecarboxylate","166.0 - 167.0","?C","439.5","K","","","","","","-","","-","","-","","-"
"CC(C)N1N=NC2=C1C=CC(=C2)C(Cl)=O","-","-","-","1-Isopropyl-1H-1,2,3-benzotriazole-5-carbonyl chloride","140.0 - 143.0","?C","414.5","K","","","","","","-","","-","","-","","-"
"FC(F)(F)C1=C(C(=CS1)S(Cl)(=O)=O)C1=CC=CC=C1","-","-","-","4-Phenyl-5-(trifluoromethyl)thiophene-3-sulfonyl chloride","86.0 - 87.0","?C","359.5","K","","","","","","-","","-","","-","","-"
"CC1=C(SC(=N1)C1=CC=C(C=C1)C(F)(F)F)C(=O)CBr","-","-","-","2-Bromo-1-{4-methyl-2-[4-(trifluoromethyl)phenyl]-1,3-thiazol-5-yl}-1-ethanone","82.0 - 84.0","?C","356.0","K","","","","","","-","","-","","-","","-"
"CC1=C(Br)SC(=N1)C1=CC=C(C=C1)C(F)(F)F","-","-","-","5-Bromo-4-methyl-2-[4-(trifluoromethyl)phenyl]-1,3-thiazole","68.0 - 69.0","?C","341.5","K","","","","","","-","","-","","-","","-"
"CC1=C(SC(=N1)C1=CC=C(C=C1)C(F)(F)F)C#N","-","-","-","4-Methyl-2-[4-(trifluoromethyl)phenyl]-1,3-thiazole-5-carbonitrile","155.0 - 156.0","?C","428.5","K","","","","","","-","","-","","-","","-"
"CC(C)(C)OC(=O)NCC1CCN(CC2=CC=CC=C2)CC1","-","-","-","tert-Butyl N-[(1-benzyl-4-piperidinyl)methyl]carbamate","102.0 - 103.0","?C","375.5","K","","","","","","-","","-","","-","","-"
"CC(C)[Si](C(C)C)(C(C)C)N1C=CC2=C1C=CC=C2Br","-","-","-","4-Bromo-1-(triisopropylsilyl)-1H-indole","62.0 - 65.0","?C","336.5","K","","","","","","-","","-","","-","","-"
"N#CCCN1C=CN=C1C1=CC=CC=C1","-","-","-","3-(2-Phenyl-1H-imidazol-1-yl)propanenitrile","99.5 - 101.5","?C","373.5","K","","","","","","-","","-","","-","","-"
"CC(C)(C)OC(=O)N1CCN(CC1)C1=CC=CC=C1N","-","-","-","tert-Butyl 4-(2-aminophenyl)tetrahydro-1(2H)-pyrazinecarboxylate","120.0 - 122.0","?C","394.0","K","","","","","","-","","-","","-","","-"
"OC(=O)C1=CSC(=N1)C1=CC(Cl)=CC=C1","-","-","-","2-(3-Chlorophenyl)-1,3-thiazole-4-carboxylic acid","206.0 - 207.0","?C","479.5","K","","","","","","-","","-","","-","","-"
"NC1=CC(=CC=C1)C1=CC=CS1","-","-","-","3-(2-Thienyl)aniline","246.0 - 247.0","?C","519.5","K","","","","","","-","","-","","-","","-"
"CC1=CC(=CC(C)=C1)P(C1=CC(C)=CC(C)=C1)C1=CC(C)=CC(C)=C1","-","-","-","Tris(3,5-dimethylphenyl)phosphine","160.0 - 162.0","?C","434.0","K","","","","","","-","","-","","-","","-"
"OCC1=CC=CN=C1N1CCCC1","-","-","-","[2-(1-Pyrrolidinyl)-3-pyridinyl]methanol","74.0 - 76.0","?C","348.0","K","","","","","","-","","-","","-","","-"
"CCOC(=O)C1=C(C)OC(=C1)C1=CC=C(C)C=C1","-","-","-","Ethyl 2-methyl-5-(4-methylphenyl)-3-furoate","82.0 - 83.0","?C","355.5","K","","","","","","-","","-","","-","","-"
"CC1=C(CC(O)=O)N=C(S1)C1CCN(CC1)C(=O)OC(C)(C)C","-","-","-","{2-[1-(tert-Butoxycarbonyl)piperidin-4-yl]-5-methyl-1,3-thiazol-4-yl}acetic acid","48.0 - 50.0","?C","322.0","K","","","","","","-","","-","","-","","-"
"CCC(N)P(O)(O)=O","-","-","-","(R)-(1-Aminopropyl)phosphonic acid","260.0","?C","533.0","K","","","","","","-","","-","","-","","-"
"OC(=O)C1=C(C=CC=C1)S(O)(=O)=O","-","-","-","2-Sulfobenzoic acid","142.0","?C","415.0","K","","","","","","-","","-","","-","","-"
"N#CC1=CC=C(C=C1)N1CCNCC1","-","-","-","4-Piperazin-1-yl-benzonitrile","82.0 - 84.0","?C","356.0","K","","","","","","-","","-","","-","","-"
"CN1C(C)=NN=C1SC1=CC=C(O1)C=O","-","-","-","5-[(4,5-Dimethyl-4h-1,2,4-triazol-3-yl)sulfanyl]-2-furaldehyde","143.0 - 147.0","?C","418.0","K","","","","","","-","","-","","-","","-"
"O=CC1=CC=C(O1)SC1=NC=CC=C1","-","-","-","5-(2-Pyridinylsulfanyl)-2-furaldehyde","65.0 - 67.0","?C","339.0","K","","","","","","-","","-","","-","","-"
"CS(=O)(=O)NC1=CC(C=O)=CC=C1","-","-","-","N-(3-Formylphenyl)methanesulfonamide","146.0 - 147.0","?C","419.5","K","","","","","","-","","-","","-","","-"
"O=CC1=CC=CC(NS(=O)(=O)C2=CC=CC=C2)=C1","-","-","-","N-(3-formylphenyl)benzenesulfonamide","104.0 - 108.0","?C","379.0","K","","","","","","-","","-","","-","","-"
"CN(C)C1=C(C=O)C=C2C=CC=CC2=N1","-","-","-","2-(Dimethylamino)-3-quinolinecarbaldehyde","52.0 - 53.0","?C","325.5","K","","","","","","-","","-","","-","","-"
"CCOC(=O)C1=CC2=C(O1)C=CC(Br)=C2","-","-","-","Ethyl(5-bromobenzofuran)-2-carboxylate","69.0 - 72.0","?C","343.5","K","","","","","","-","","-","","-","","-"
"CC1OC(C)OC(C)OC(C)O1","-","-","-","METALDEHYDE","246.0","?C","519.0","K","","","","","","-","","-","","-","","-"
"OC(=O)C1=CC2=C(SC=C2)S1","-","-","-","Thieno[2,3-b]thiophene-2-carboxylic acid","236.0","?C","509.0","K","","","","","","-","","-","","-","","-"
"C1CN2C=C(N=C2S1)C1=CC=CC=C1","-","-","-","6-phenyl-2,3-dihydroimidazo[2,1-b][1,3]thiazole","147.0 - 148.0","?C","420.5","K","","","","","","-","","-","","-","","-"
"NC1=CC2=C(OCOC2)C=C1","-","-","-","4,5-Dihydro-1,3-benzodioxine-6-amine","69.0","?C","342.0","K","","","","","","-","","-","","-","","-"
"CC1=NC(=CS1)C1=CC=C(S1)C(Cl)=O","-","-","-","5-(2-Methyl-1,3-thiazol-4-yl)-2-thiophenecarbonyl chloride","107.5 - 112.5","?C","383.0","K","","","","","","-","","-","","-","","-"
"CC1=C(C=O)C2=C(N1)C=CC=C2","-","-","-","2-Methylindole-3-carboxaldehyde","204.0 - 205.0","?C","477.5","K","","","","","","-","","-","","-","","-"
"COC1=CC=CC2=C1C=CN2C","-","-","-","4-Methoxy-1-methylindole","89.0 - 91.0","?C","363.0","K","","","","","","-","","-","","-","","-"
"ClC1=CC=C2OC=C(C=O)C(=O)C2=C1","-","-","-","6-Chloro-3-formylchromone","162.0 - 168.0","?C","438.0","K","","","","","","-","","-","","-","","-"
"ClC1=CC(Cl)=C2OC=C(C=O)C(=O)C2=C1","-","-","-","6,8-Dichloro-3-formylchromone","169.0 - 174.0","?C","444.5","K","","","","","","-","","-","","-","","-"
"O=C1C(=COC2=CC=CC=C12)C#N","-","-","-","3-Cyanochromone","174.0 - 178.0","?C","449.0","K","","","","","","-","","-","","-","","-"
"CC1=CC=C2OC(=CC(=O)C2=C1)C(O)=O","-","-","-","6-Methylchromone-2-carboxylic acid","267.0 - 270.0","?C","541.5","K","","","","","","-","","-","","-","","-"
"OC1=CC=C(C(=O)CC2=CC=CC=C2)C(O)=C1","-","-","-","Benzyl 2,4-dihydroxyphenyl ketone","112.0 - 117.0","?C","387.5","K","","","","","","-","","-","","-","","-"
"NC(CS(=O)(=O)C1=CC=CC=C1)=NO","-","-","-","N'-Hydroxy-2-(phenylsulfonyl)ethanimidamide","162.0","?C","435.0","K","","","","","","-","","-","","-","","-"
"NC(CC1=CC=CC=C1)=NO","-","-","-","N'-Hydroxy-2-phenylethanimidamide","66.0 - 67.0","?C","339.5","K","","","","","","-","","-","","-","","-"
"NC(COC1=CC=CC=C1)=NO","-","-","-","N'-Hydroxy-2-phenoxyethanimidamide","93.0 - 94.0","?C","366.5","K","","","","","","-","","-","","-","","-"
"O=CC1=CC=C2N=CC=CC2=C1","-","-","-","6-Quinolinecarbaldehyde","74.0 - 75.0","?C","347.5","K","","","","","","-","","-","","-","","-"
"OC(=O)C1=CN=CN=C1","-","-","-","5-Pyrimidinecarboxylic acid","259.0 - 261.0","?C","533.0","K","","","","","","-","","-","","-","","-"
"BrC1=CC=C2OC=CC(=O)C2=C1","-","-","-","6-Bromochromone","141.0","?C","414.0","K","","","","","","-","","-","","-","","-"
"CC(=O)C1=CC(C(C)=O)=C(O)C=C1O","-","-","-","1,1'-(4,6-Dihydroxy-1,3-phenylene)bisethanone","180.0","?C","453.0","K","","","","","","-","","-","","-","","-"
"OC1=CC=C(Cl)C=C1C(=O)CC(=O)C1=CC=CC=C1","-","-","-","1-(5-Chloro-2-hydroxyphenyl)-3-phenyl-1,3-propanedione","107.0 - 112.0","?C","382.5","K","","","","","","-","","-","","-","","-"
"OC1=CC=C(Br)C=C1C(=O)CC(=O)C1=CC=CC=C1","-","-","-","1-(5-Bromo-2-hydroxyphenyl)-3-phenyl-1,3-propanedione","100.0 - 103.0","?C","374.5","K","","","","","","-","","-","","-","","-"
"ClC1=CC2=C(OC(=CC2=O)C2=CC=CC=C2)C=C1","-","-","-","6-Chloroflavone","183.0 - 187.0","?C","458.0","K","","","","","","-","","-","","-","","-"
"CC1=C(Cl)C=C2C(=O)C=C(OC2=C1)C1=CC=CC=C1","-","-","-","6-Chloro-7-methylflavone","174.0 - 178.0","?C","449.0","K","","","","","","-","","-","","-","","-"
"CC1=CC=C(O)C(=C1)C(=O)CC(=O)C1=CC=CC=C1","-","-","-","1-(2-Hydroxy-5-methylphenyl)-3-phenyl-1,3-propanedione","92.0 - 94.0","?C","366.0","K","","","","","","-","","-","","-","","-"
"CC(C)(C)OC(=O)N1C(CO)CC2=C1C=CC=C2","-","-","-","tert-Butyl 2-(hydroxymethyl)-1-indolinecarboxylate","84.0 - 89.0","?C","359.5","K","","","","","","-","","-","","-","","-"
"BrC1=CC=C2C(=O)OCC2=C1","-","-","-","5-Bromophthalide","162.0 - 166.0","?C","437.0","K","","","","","","-","","-","","-","","-"
"CC(C)C(N)P(O)(O)=O","-","-","-","(1R)-(+)-(1-Amino-2-methylpropyl)phosphonic acid","270.0","?C","543.0","K","","","","","","-","","-","","-","","-"