"SMILES","CASRN","EXTERNALID","N","NAME","Melting Point","UNIT {Melting Point}","Melting Point {measured, converted}","UNIT {Melting Point}","Dataset","comment (property)","comment (chemical)","measurement method","Pressure","UNIT {Pressure}","Som set numeric condition","UNIT {Som set numeric condition}","Resp set numeric condition","UNIT {Resp set numeric condition}","Quality code","UNIT {Quality code}"
"CC1CCCC(=O)C1","-","-","-","3-methylcyclohexanone","-73.0","?C","200.0","K","","","","","","-","","-","","-","","-"
"CC1CC(=O)OC(=O)C1","-","-","-","3-Methylglutaric anhydride","40.0 - 45.0","?C","315.5","K","","","","","","-","","-","","-","","-"
"CNN","-","-","-","METHYLHYDRAZINE","-21.0","?C","252.0","K","","","","","","-","","-","","-","","-"
"CCC(C)CC","-","-","-","3-Methylpentane","-118.0","?C","155.0","K","","","","","","-","","-","","-","","-"
"CN1CCCCC1","-","-","-","n-methylpiperidine","-50.0","?C","223.0","K","","","","","","-","","-","","-","","-"
"CC1CCCCN1","-","-","-","2-METHYLPIPERIDINE","-4.0 - -5.0","?C","268.5","K","","","","","","-","","-","","-","","-"
"CC1CCCNC1","-","-","-","3-Methylpiperidine","-24.0","?C","249.0","K","","","","","","-","","-","","-","","-"
"CN1C=CC=C1","-","-","-","N-METHYLPYRROLE","-57.0","?C","216.0","K","","","","","","-","","-","","-","","-"
"CN1CCCC1","-","-","-","1-METHYLPYRROLIDINE","-90.0","?C","183.0","K","","","","","","-","","-","","-","","-"
"CC1=CC=C(C=C)C=C1","-","-","-","P-METHYLSTYRENE","-34.0","?C","239.0","K","","","","","","-","","-","","-","","-"
"C=CCCCCC=C","-","-","-","1,7-Octadiene","-70.0","?C","203.0","K","","","","","","-","","-","","-","","-"
"CCCCCC=CC(O)=O","-","-","-","2-Octenoic acid","5.0 - 6.0","?C","278.5","K","","","","","","-","","-","","-","","-"
"CC(C)(C)CC(C)(C)N","-","-","-","tert-Octylamine","-67.0","?C","206.0","K","","","","","","-","","-","","-","","-"
"FC(F)(F)C1(F)C(F)(F)C(F)(F)C(F)(F)C(F)(F)C1(F)F","-","-","-","Perfluoro(methylcyclohexane)","-37.0","?C","236.0","K","","","","","","-","","-","","-","","-"
"ClP(Cl)(=O)OC1=CC=CC=C1","-","-","-","PHENYL DICHLOROPHOSPHATE","-1.0","?C","272.0","K","","","","","","-","","-","","-","","-"
"O=C=NC1=CC=CC=C1","-","-","-","PHENYL ISOCYANATE","-31.3","?C","241.7","K","","","","","","-","","-","","-","","-"
"ClP(Cl)(=O)C1=CC=CC=C1","-","-","-","Phenylphosphonic dichloride","3.0","?C","276.0","K","","","","","","-","","-","","-","","-"
"C1CN(CCN1)C1=CC=CC=C1","-","-","-","1-PHENYLPIPERAZINE","18.8","?C","291.8","K","","","","","","-","","-","","-","","-"
"S(C1=CC=CC=C1)C1=CC=CC=C1","-","-","-","Phenyl sulfide","-40.0","?C","233.0","K","","","","","","-","","-","","-","","-"
"CCCN=C=O","-","-","-","n-Propyl isocyanate","-30.0","?C","243.0","K","","","","","","-","","-","","-","","-"
"OCC1=NC=CC=C1","-","-","-","2-(Hydroxymethyl)pyridine","5.0","?C","278.0","K","","","","","","-","","-","","-","","-"
"CCC1=[N+]([O-])C(C)(C)N(C)C1(C)C","-","-","-","1,2,2,5,5-Pentamethyl-4-ethyl-3-imidazoline-3-oxide","32.0 - 34.0","?C","306.0","K","","","","","","-","","-","","-","","-"
"CN(C=C)C(C)=O","-","-","-","N-Vinyl-N-methylacetamide","-36.0","?C","237.0","K","","","","","","-","","-","","-","","-"
"CC(COC(C)=O)OC(C)=O","-","-","-","1,2-Propyleneglycol diacetate","-31.0","?C","242.0","K","","","","","","-","","-","","-","","-"
"CN(C)CCC#N","-","-","-","3-(Dimethylamino)propionitrile","-43.0","?C","230.0","K","","","","","","-","","-","","-","","-"
"CC1=C(C=CC(Cl)=C1)[N+]([O-])=O","-","-","-","5-Chloro-2-nitrotoluene","23.0 - 25.0","?C","297.0","K","","","","","","-","","-","","-","","-"
"FC(F)(F)C1=CC(Br)=C(Cl)C=C1","-","-","-","3-Bromo-4-chlorobenzotrifluoride","-23.0 - -22.0","?C","250.5","K","","","","","","-","","-","","-","","-"
"OCC1CCCO1","-","-","-","TETRAHYDROFURFURYL ALCOHOL","-80.0","?C","193.0","K","","","","","","-","","-","","-","","-"
"C1CC2=C(CN1)C=CC=C2","-","-","-","1,2,3,4-Tetrahydroisoquinoline","-30.0","?C","243.0","K","","","","","","-","","-","","-","","-"
"CC1(C)CC(=O)CC(C)(C)C1","-","-","-","3,3,5,5-Tetramethylcyclohexanone","11.0 - 12.0","?C","284.5","K","","","","","","-","","-","","-","","-"
"O=C1CC2(CCCC2)CC(=O)O1","-","-","-","3,3-Tetramethyleneglutaric anhydride","64.0 - 66.0","?C","338.0","K","","","","","","-","","-","","-","","-"
"C[Si](C)(C)O[Si](C)(C)C","-","-","-","HEXAMETHYLDISILOXANE","-59.0","?C","214.0","K","","","","","","-","","-","","-","","-"
"CCN(CC)CC(O)CO","-","-","-","3-(Diethylamino)-1,2-propanediol","-30.0","?C","243.0","K","","","","","","-","","-","","-","","-"
"C[Si](C)(C)C#N","-","-","-","Trimethylsilyl cyanide","11.0","?C","284.0","K","","","","","","-","","-","","-","","-"
"CCCCCCC(O)CO","-","-","-","1,2-OCTANEDIOL","36.0 - 38.0","?C","310.0","K","","","","","","-","","-","","-","","-"
"CN(C)C#N","-","-","-","Dimethylcyanamide","-41.0","?C","232.0","K","","","","","","-","","-","","-","","-"
"FC1=CC=CC(Cl)=C1CCl","-","-","-","2-Chloro-6-fluorobenzyl chloride","7.0","?C","280.0","K","","","","","","-","","-","","-","","-"
"OCC(O)CN1CCCC1","-","-","-","3-Pyrrolidino-1,2-propanediol","43.0 - 48.0","?C","318.5","K","","","","","","-","","-","","-","","-"
"CC(C)(C)NCC1=CC=CC=C1","-","-","-","N-(tert-Butyl)benzylamine","-25.0","?C","248.0","K","","","","","","-","","-","","-","","-"
"FC1=CC=C(I)C=C1","-","-","-","1-fluoro-4-iodobenzene","-20.0","?C","253.0","K","","","","","","-","","-","","-","","-"
"CCCCCCCCCCCCCCCCCCCCC(O)=O","-","-","-","HENEICOSANOIC ACID","74.0 - 76.0","?C","348.0","K","","","","","","-","","-","","-","","-"
"CCC(C)CC(O)=O","-","-","-","DL-3-Methylvaleric acid","-41.0","?C","232.0","K","","","","","","-","","-","","-","","-"
"CC1=C(N)C=CC=C1F","-","-","-","3-Fluoro-2-methylaniline","7.0","?C","280.0","K","","","","","","-","","-","","-","","-"
"FC1=CC=C(C=C1)C(=O)C1=CC=CC=C1F","-","-","-","2,4'-Difluorobenzophenone","22.0 - 24.0","?C","296.0","K","","","","","","-","","-","","-","","-"
"CSC1=CC=C(C=O)C=C1","-","-","-","4-(Methylthio)benzaldehyde","6.0","?C","279.0","K","","","","","","-","","-","","-","","-"
"CC(C)=CCCC(C)=CCCC(C)=CCCC=C(C)CCC=C(C)CCC=C(C)C","-","-","-","Squalene","-75.0","?C","198.0","K","","","","","","-","","-","","-","","-"
"CC(C)N(C=O)C(C)C","-","-","-","Diisopropylformamide","10.0 - 11.0","?C","283.5","K","","","","","","-","","-","","-","","-"
"CCCCOC(=O)C(=O)OCCCC","-","-","-","DIBUTYL OXALATE","-29.0","?C","244.0","K","","","","","","-","","-","","-","","-"
"CC(=O)C(Cl)C(C)=O","-","-","-","3-Chloro-2,4-pentanedione","-15.0","?C","258.0","K","","","","","","-","","-","","-","","-"
"NCCCOCCCCOCCCN","-","-","-","4,9-Dioxa-1,12-dodecanediamine","4.5","?C","277.5","K","","","","","","-","","-","","-","","-"
"CC(C)OC(=O)C(C)O","-","-","-","Isopropyl (S)-(-)-lactate","1.0","?C","274.0","K","","","","","","-","","-","","-","","-"
"CCCCCC1=CC=C(C=C1)C(O)=O","-","-","-","4-Pentylbenzoic acid","85.0 - 90.0","?C","360.5","K","","","","","","-","","-","","-","","-"
"C[Si](C)(C)N=C=S","-","-","-","Trimethylsilyl isothiocyanate","-32.8","?C","240.2","K","","","","","","-","","-","","-","","-"
"CCOC(=O)C(=O)CC(C)=O","-","-","-","Ethyl 2,4-dioxovalerate","16.0 - 18.0","?C","290.0","K","","","","","","-","","-","","-","","-"
"CC(O)CN(CCO)CCO","-","-","-","1-[N,N-Bis(2-hydroxyethyl)amino]-2-propanol","31.5 - 36.0","?C","306.8","K","","","","","","-","","-","","-","","-"
"CCCCCC=CCC=CCCCCCCCC(O)=O","-","-","-","Linoleic acid","-5.0","?C","268.0","K","","","","","","-","","-","","-","","-"
"CC(=C)C(=O)OCC=C","-","-","-","ALLYL METHACRYLATE","-65.0","?C","208.0","K","","","","","","-","","-","","-","","-"
"COP(Cl)Cl","-","-","-","Methyl dichlorophosphite","-91.0","?C","182.0","K","","","","","","-","","-","","-","","-"
"OCCC1=CC=CC=C1C(F)(F)F","-","-","-","2-(Trifluoromethyl)phenethyl alcohol","3.0 - 2.0","?C","275.5","K","","","","","","-","","-","","-","","-"
"OCCSCCSCCO","-","-","-","3,6-Dithia-1,8-octanediol","64.0 - 68.0","?C","339.0","K","","","","","","-","","-","","-","","-"
"CN(C)[Si](C)(C)N(C)C","-","-","-","Bis(dimethylamino)dimethylsilane","-98.0","?C","175.0","K","","","","","","-","","-","","-","","-"
"C[Si](C)(C)O[Si](C)(C)O[Si](C)(C)O[Si](C)(C)C","-","-","-","DECAMETHYLTETRASILOXANE","-68.0","?C","205.0","K","","","","","","-","","-","","-","","-"
"CCCCCCCCCCCCCCCCCCOCCOCCOCCOCCOCCOCCOCCOCCOCCOCCOCCOCCOCCOCCOCCOCCOCCOCCOCCOCCO","-","-","-","Brij 78","44.0 - 46.0","?C","318.0","K","","","","","","-","","-","","-","","-"
"ClC(=O)OC1=CC=CC=C1","-","-","-","Phenyl Chloroformate","-28.0","?C","245.0","K","","","","","","-","","-","","-","","-"
"OCCOC1=CC=C(OCCO)C=C1","-","-","-","Hydroquinone bis(2-hydroxyethyl)ether","104.0 - 107.0","?C","378.5","K","","","","","","-","","-","","-","","-"
"CCCCCCl","-","-","-","1-Chloropentane","-60.0","?C","213.0","K","","","","","","-","","-","","-","","-"
"CCC1=NC=CN1","-","-","-","2-Ethylimidazole","83.0 - 87.0","?C","358.0","K","","","","","","-","","-","","-","","-"
"NCCCNCCNCCCN","-","-","-","N,N'-Bis(3-aminopropyl)ethylenediamine","-1.5","?C","271.5","K","","","","","","-","","-","","-","","-"
"CCOCCCN","-","-","-","3-Ethoxypropylamine","-70.0","?C","203.0","K","","","","","","-","","-","","-","","-"
"CN(C)C(=N)N(C)C","-","-","-","1,1,3,3-Tetramethylguanidine","-30.0","?C","243.0","K","","","","","","-","","-","","-","","-"
"CCC(=O)C(C)=O","-","-","-","2,3-Pentanedione","-52.0","?C","221.0","K","","","","","","-","","-","","-","","-"
"COCCCl","-","-","-","2-Chloroethyl methyl ether","-55.0","?C","218.0","K","","","","","","-","","-","","-","","-"
"COC(=O)CCCCCCC(O)=O","-","-","-","Suberic acid monomethyl ester","17.0 - 19.0","?C","291.0","K","","","","","","-","","-","","-","","-"
"SCCCCCS","-","-","-","1,5-Pentanedithiol","-72.0","?C","201.0","K","","","","","","-","","-","","-","","-"
"CCCCC(Br)C(O)=O","-","-","-","DL-2-Bromohexanoic acid","4.0","?C","277.0","K","","","","","","-","","-","","-","","-"
"CC(O)CC(C)O","-","-","-","(2R,4R)-(-)-Pentanediol","50.0 - 52.0","?C","324.0","K","","","","","","-","","-","","-","","-"
"CC1(C)CC(C)(C)[N+]([O-])=C1","-","-","-","3,3,5,5-Tetramethylpyrroline-N-oxide","53.0 - 59.0","?C","329.0","K","","","","","","-","","-","","-","","-"
"SC1=C(Cl)C=CC=C1Cl","-","-","-","2,6-Dichlorobenzenethiol","45.0 - 50.0","?C","320.5","K","","","","","","-","","-","","-","","-"
"C[Si](C)(C)OS(=O)(=O)O[Si](C)(C)C","-","-","-","Bis(trimethylsilyl)sulfate","47.0 - 50.0","?C","321.5","K","","","","","","-","","-","","-","","-"
"CN(C)S(F)(F)F","-","-","-","Dimethylaminosulfur trifluoride","-78.7","?C","194.3","K","","","","","","-","","-","","-","","-"
"CN1CCCN(C)C1=O","-","-","-","1,3-Dimethyl-3,4,5,6-tetrahydro-2(1H)-pyrimidinone","-20.0","?C","253.0","K","","","","","","-","","-","","-","","-"
"[O-][N+](=O)C1=C(C=CC=C1)C(Cl)=O","-","-","-","2-Nitrobenzoyl chloride","17.0 - 20.0","?C","291.5","K","","","","","","-","","-","","-","","-"
"FC(F)(F)C1=CC(I)=CC=C1","-","-","-","3-Iodobenzotrifluoride","-8.0","?C","265.0","K","","","","","","-","","-","","-","","-"
"FC1=C(F)C=C(Br)C=C1","-","-","-","1-Bromo-3,4-difluorobenzene","-4.0","?C","269.0","K","","","","","","-","","-","","-","","-"
"CC1=C(C)C=C(C=C1)C(=O)CCCCl","-","-","-","4-Chloro-1-(3,4-dimethylphenyl)-1-butanone","46.0 - 49.0","?C","320.5","K","","","","","","-","","-","","-","","-"
"COC(C(=O)OC)C(=O)OC","-","-","-","Dimethyl methoxymalonate","11.0 - 12.0","?C","284.5","K","","","","","","-","","-","","-","","-"
"OCC(O)COCC=C","-","-","-","Glycerol-1-allylether","-100.0","?C","173.0","K","","","","","","-","","-","","-","","-"
"COC(=O)CC(=O)CCl","-","-","-","Methyl 4-chloroacetoacetate","14.0 - 16.0","?C","288.0","K","","","","","","-","","-","","-","","-"
"FC(F)(F)C1=CC(Cl)=C(Cl)N=C1","-","-","-","2,3-Dichloro-5-(trifluoromethyl)pyridine","8.0 - 9.0","?C","281.5","K","","","","","","-","","-","","-","","-"
"NCCC1=CCCCC1","-","-","-","Cyclohexenylethylamine","-55.0","?C","218.0","K","","","","","","-","","-","","-","","-"
"CCCCNC1=CC=CC=C1","-","-","-","N-BUTYLANILINE","-12.0","?C","261.0","K","","","","","","-","","-","","-","","-"
"FC1=CC=C(CC2=CC=C(F)C=C2)C=C1","-","-","-","4,4'-Difluorodiphenylmethane","29.0 - 30.0","?C","302.5","K","","","","","","-","","-","","-","","-"
"COC(=O)C(F)(F)F","-","-","-","METHYL TRIFLUOROACETATE","-78.0","?C","195.0","K","","","","","","-","","-","","-","","-"
"FC(F)(F)COC(=O)C(F)(F)F","-","-","-","Trifluoroacetic acid 2,2,2-trifluoroethyl ester","-65.0","?C","208.0","K","","","","","","-","","-","","-","","-"
"CC(O)CN(CC(C)O)CC(C)O","-","-","-","Triisopropanolamine","48.0 - 52.0","?C","323.0","K","","","","","","-","","-","","-","","-"
"CCN1CCNCC1","-","-","-","1-Ethylpiperazine","-60.0","?C","213.0","K","","","","","","-","","-","","-","","-"
"CC(CSC(C)=O)C(O)=O","-","-","-","D(-)-S-Acetyl-beta-mercaptoisobutyric acid","5.0","?C","278.0","K","","","","","","-","","-","","-","","-"
"FC1=CC(F)=C(Br)C=C1","-","-","-","1-Bromo-2,4-difluorobenzene","-4.0","?C","269.0","K","","","","","","-","","-","","-","","-"
"FC1=CC(Br)=C(F)C=C1","-","-","-","1-Bromo-2,5-difluorobenzene","-31.0","?C","242.0","K","","","","","","-","","-","","-","","-"
"FC1=CC(Br)=CC(F)=C1","-","-","-","1-Bromo-3,5-difluorobenzene","-27.0","?C","246.0","K","","","","","","-","","-","","-","","-"
"CCOC(=O)C1=CC=C(Br)C=C1","-","-","-","Ethyl 4-bromobenzoate","18.0","?C","291.0","K","","","","","","-","","-","","-","","-"
"ClC(=O)C1=C(I)C=CC=C1","-","-","-","2-Iodobenzoyl chloride","30.0 - 32.0","?C","304.0","K","","","","","","-","","-","","-","","-"
"COC1=C(F)C=C(Br)C=C1","-","-","-","4-Bromo-2-fluoroanisole","16.0","?C","289.0","K","","","","","","-","","-","","-","","-"
"OC1=C(Cl)C=C(F)C=C1","-","-","-","2-CHLORO-4-FLUOROPHENOL","23.0","?C","296.0","K","","","","","","-","","-","","-","","-"
"CC(=O)OC1=CC(=CC(OC(C)=O)=C1)C(C)=O","-","-","-","3,5-Diacetoxyacetophenone","91.0 - 95.0","?C","366.0","K","","","","","","-","","-","","-","","-"
"COCCO[Si](OCCOC)(OCCOC)C=C","-","-","-","Vinyl tris(2-methoxyethoxy) silane","-30.0","?C","243.0","K","","","","","","-","","-","","-","","-"
"CC(=O)O[Si](OC(C)=O)(OC(C)=O)C=C","-","-","-","Vinyltriacetoxysilane","7.0","?C","280.0","K","","","","","","-","","-","","-","","-"
"CC(=O)C1=C(N)C=C2OCOC2=C1","-","-","-","6-Amino-3,4-methylenedioxyacetophenone","168.0 - 171.0","?C","442.5","K","","","","","","-","","-","","-","","-"
"CC(Cl)C(O)=O","-","-","-","(S)-(-)-2-Chloropropionic acid","4.0","?C","277.0","K","","","","","","-","","-","","-","","-"
"CCN(CC)C(=O)CC(C)=O","-","-","-","N,N-Diethylacetoacetamide","-73.0","?C","200.0","K","","","","","","-","","-","","-","","-"
"OCCCC1CCCCC1","-","-","-","3-Cyclohexyl-1-propanol","-60.0","?C","213.0","K","","","","","","-","","-","","-","","-"
"ClCCCCCCCCCCCCCl","-","-","-","1,12-Dichlorododecane","29.0","?C","302.0","K","","","","","","-","","-","","-","","-"
"ClCCCCCCCCCl","-","-","-","1,8-Dichlorooctane","-8.0","?C","265.0","K","","","","","","-","","-","","-","","-"
"ClCCCC1=CC=CC=C1","-","-","-","1-Chloro-3-phenylpropane","-27.0","?C","246.0","K","","","","","","-","","-","","-","","-"
"CC(CC(C)(C)C1CCCCC1)C1CCCCC1","-","-","-","2,4-Dicyclohexyl-2-methylpentane","-30.0","?C","243.0","K","","","","","","-","","-","","-","","-"
"COC1CCCCCCCCCCC1","-","-","-","Cyclododecylmethyl ether","8.0","?C","281.0","K","","","","","","-","","-","","-","","-"
"CC1CC(=O)CC(C)(C)C1","-","-","-","3,3,5-TRIMETHYLCYCLOHEXANONE","-10.0","?C","263.0","K","","","","","","-","","-","","-","","-"
"CCC(=O)OC(C)C1=CC=CC=C1","-","-","-","1-Phenylethyl propionate","-60.0","?C","213.0","K","","","","","","-","","-","","-","","-"
"CC(C)C(=O)OCCCC1=CC=CC=C1","-","-","-","3-Phenylpropyl isobutyrate","-60.0","?C","213.0","K","","","","","","-","","-","","-","","-"
"COCCC#N","-","-","-","3-Methoxypropionitrile","-62.9","?C","210.1","K","","","","","","-","","-","","-","","-"
"COCCCN","-","-","-","3-Methoxypropylamine","-65.0","?C","208.0","K","","","","","","-","","-","","-","","-"
"CC(C)OCCCN","-","-","-","3-Isopropoxypropylamine","-65.0","?C","208.0","K","","","","","","-","","-","","-","","-"
"CCCCOCCCN","-","-","-","3-n-Butoxypropylamine","-65.0","?C","208.0","K","","","","","","-","","-","","-","","-"
"NCCCNCCO","-","-","-","N-(2-Hydroxyethyl)-1,3-propanediamine","15.0 - 19.0","?C","290.0","K","","","","","","-","","-","","-","","-"
"COC(=O)C1=COC=C1C(=O)OC","-","-","-","Dimethyl 3,4-furandicarboxylate","42.0 - 47.0","?C","317.5","K","","","","","","-","","-","","-","","-"
"N#CC1=COC=C1","-","-","-","3-Furonitrile","29.0 - 31.0","?C","303.0","K","","","","","","-","","-","","-","","-"
"CCCCCCCCCCCCCCCCCCCCCCCCO","-","-","-","Tetracosanol","75.0 - 77.0","?C","349.0","K","","","","","","-","","-","","-","","-"
"CCCCCCCCCCCCCCCCCCCCCCCO","-","-","-","Tricosanol","74.0 - 76.0","?C","348.0","K","","","","","","-","","-","","-","","-"
"CCCCCCCCCCCCCCCCCCCCCO","-","-","-","Heneicosanol","68.0 - 71.0","?C","342.5","K","","","","","","-","","-","","-","","-"
"OC(=O)CCCCCCCCCCCCCCCCCCCCC(O)=O","-","-","-","Docosanedioic acid","125.0 - 127.0","?C","399.0","K","","","","","","-","","-","","-","","-"
"ICCCCCCCCI","-","-","-","1,8-Diiodooctane","16.0 - 21.0","?C","291.5","K","","","","","","-","","-","","-","","-"
"CCOCC(C)O","-","-","-","1-ETHOXY-2-PROPANOL","-100.0","?C","173.0","K","","","","","","-","","-","","-","","-"
"COC(C)(C)CCO","-","-","-","3-Methyl-3-methoxybutanol","-50.0","?C","223.0","K","","","","","","-","","-","","-","","-"
"C=C1CCC(=O)O1","-","-","-","gamma-Methylene-gamma-butyrolactone","18.0","?C","291.0","K","","","","","","-","","-","","-","","-"
"CCC1=CC=C(I)C=C1","-","-","-","1-Ethyl-4-iodobenzene","-17.0","?C","256.0","K","","","","","","-","","-","","-","","-"
"CC(C(O)=O)C1=CC=CC=C1","-","-","-","(S)-(+)-2-Phenylpropionic acid","29.0 - 32.0","?C","303.5","K","","","","","","-","","-","","-","","-"
"CCC1OC(=O)C(O)=C1C","-","-","-","5-Ethyl-3-hydroxy-4-methyl-2(5H)-furanone","27.0 - 30.0","?C","301.5","K","","","","","","-","","-","","-","","-"
"OC1CCCCC1C#N","-","-","-","trans-2-Cyano-1-cyclohexanol","46.0 - 49.0","?C","320.5","K","","","","","","-","","-","","-","","-"
"CC1=CC=CN=C1C","-","-","-","2,3-Lutidine","-17.0","?C","256.0","K","","","","","","-","","-","","-","","-"
"CCCCOC(=O)CC","-","-","-","N-BUTYL PROPIONATE","-75.0","?C","198.0","K","","","","","","-","","-","","-","","-"
"CCOCCC(=O)OCC","-","-","-","Ethyl 3-ethoxypropionate","-75.0","?C","198.0","K","","","","","","-","","-","","-","","-"
"FC(F)(F)C(F)(I)C(F)(F)F","-","-","-","Heptafluoroisopropyl iodide","-58.0","?C","215.0","K","","","","","","-","","-","","-","","-"
"FC(F)(F)C(F)(F)C(F)(F)C(F)(F)C(F)(F)C(F)(F)I","-","-","-","Perfluoro-1-iodohexane","-45.0","?C","228.0","K","","","","","","-","","-","","-","","-"
"ClC(=O)C1=CC=CC2=CC=CC=C12","-","-","-","1-Naphthoyl chloride","26.0","?C","299.0","K","","","","","","-","","-","","-","","-"
"FC1=C(Cl)C=C(Cl)C=C1","-","-","-","1,3-Dichloro-4-fluorobenzene","-23.0","?C","250.0","K","","","","","","-","","-","","-","","-"
"CC1(C)OC2OC3COC(C)(C)OC3C2O1","-","-","-","1,2:3,5-Di-O-isopropylidene-alpha-D-xylofuranose","42.0 - 46.0","?C","317.0","K","","","","","","-","","-","","-","","-"
"COC1=C(C=C(C=C1)C(=O)C1=CC=CC(Cl)=C1)[N+]([O-])=O","-","-","-","(3-Chlorophenyl)(4-methoxy-3-nitrophenyl)methanone","109.0 - 114.0","?C","384.5","K","","","","","","-","","-","","-","","-"
"FC1=CC(F)=C(Br)C=C1F","-","-","-","1-Bromo-2,4,5-trifluorobenzene","-19.0","?C","254.0","K","","","","","","-","","-","","-","","-"
"CCCCOC(N)=O","-","-","-","N-BUTYL CARBAMATE","51.0 - 56.0","?C","326.5","K","","","","","","-","","-","","-","","-"
"CC1CC2=C(N1)C=CC=C2","-","-","-","2-Methylindoline","-51.0","?C","222.0","K","","","","","","-","","-","","-","","-"
"COC1=CC(Cl)=C(OC)C=C1","-","-","-","2-Chloro-1,4-dimethoxybenzene","8.1","?C","281.1","K","","","","","","-","","-","","-","","-"
"C=CCOC(=O)C1=C(C=CC=C1)C(=O)OCC=C","-","-","-","diallyl phthalate","-70.0","?C","203.0","K","","","","","","-","","-","","-","","-"
"COC1=CC(=O)OC1","-","-","-","4-Methoxy-2(5H)-furanone","60.0 - 65.0","?C","335.5","K","","","","","","-","","-","","-","","-"