"SMILES","CASRN","EXTERNALID","N","NAME","Melting Point","UNIT {Melting Point}","Melting Point {measured, converted}","UNIT {Melting Point}","Dataset","comment (property)","comment (chemical)","measurement method","Pressure","UNIT {Pressure}","Som set numeric condition","UNIT {Som set numeric condition}","Resp set numeric condition","UNIT {Resp set numeric condition}","Quality code","UNIT {Quality code}"
"CN1CCN(CC1)C1=CC=CC=C1C(O)=O","-","-","-","2-(4-Methylpiperazin-1-yl)benzoic acid","67.0 - 72.0","?C","342.5","K","","","","","","-","","-","","-","","-"
"CC1=NC(=NO1)C1=CC(=CC=C1)C(O)=O","-","-","-","3-(5-Methyl-1,2,4-oxadiazol-3-yl)benzoic acid","223.0 - 225.0","?C","497.0","K","","","","","","-","","-","","-","","-"
"CC1=NC(=NO1)C1=CC(=CC=C1)C(Cl)=O","-","-","-","3-(5-Methyl-1,2,4-oxadiazol-3-yl)benzoyl chloride","93.0","?C","366.0","K","","","","","","-","","-","","-","","-"
"CC1=NC(=NO1)C1=CC(=CC=C1)S(Cl)(=O)=O","-","-","-","3-(5-Methyl-1,2,4-oxadiazol-3-yl)benzenesulfonyl chloride","67.0 - 69.0","?C","341.0","K","","","","","","-","","-","","-","","-"
"COC(=O)C1=CC2=C(N1)C=CO2","-","-","-","Methyl 4H-furo[3,2-b]pyrrole-5-carboxylate","139.0 - 140.0","?C","412.5","K","","","","","","-","","-","","-","","-"
"OC(=O)C1=NN2C=CC=CC2=C1","-","-","-","Pyrazolo[1,5-a]pyridine-2-carboxylic acid","189.0 - 192.0","?C","463.5","K","","","","","","-","","-","","-","","-"
"CC(C)(C)OC(=O)N1CCSCC1C(O)=O","-","-","-","4-(tert-Butoxycarbonyl)thiomorpholine-3-carboxylic acid","145.0 - 147.0","?C","419.0","K","","","","","","-","","-","","-","","-"
"CC1=NC(=CS1)C1=CC=C(Br)C=C1","-","-","-","4-(4-Bromophenyl)-2-methyl-1,3-thiazole","130.0 - 135.0","?C","405.5","K","","","","","","-","","-","","-","","-"
"FC(F)(F)C1=CC=CC(NC(=O)CCl)=C1","-","-","-","N1-[3-(Trifluoromethyl)phenyl]-2-chloroacetamide","62.5 - 64.0","?C","336.2","K","","","","","","-","","-","","-","","-"
"COC(=O)C1=COC(CCl)=N1","-","-","-","Methyl 2-(chloromethyl)-1,3-oxazole-4-carboxylate","74.0 - 76.0","?C","348.0","K","","","","","","-","","-","","-","","-"
"COC(=O)C1=CC=C2C(I)=CN(C(=O)OC(C)(C)C)C2=C1","-","-","-","1-(tert-Butyl)-6-methyl-3-iodo-1H-indole-1,6-dicarboxylate","154.0 - 155.0","?C","427.5","K","","","","","","-","","-","","-","","-"
"COC(=O)C1=CC=C2C(C=O)=CN(C(=O)OC(C)(C)C)C2=C1","-","-","-","1-tert-Butyl 6-methyl 3-formyl-1H-indole-1,6-dicarboxylate","214.0 - 215.0","?C","487.5","K","","","","","","-","","-","","-","","-"
"CC(C)(C)OC(=O)C1=NNC2=C1C=CC(F)=N2","-","-","-","tert-Butyl 6-fluoro-1H-pyrazolo[3,4-b]pyridine-3-carboxylate","166.0 - 168.0","?C","440.0","K","","","","","","-","","-","","-","","-"
"COC(=O)C1=CC=C(C=C1)C(N)=NO","-","-","-","Methyl 4-[(z)-amino(hydroxyimino)methyl]benzoate","167.0 - 168.0","?C","440.5","K","","","","","","-","","-","","-","","-"
"COC(=O)C1=CC=C2C(I)=CNC2=C1","-","-","-","Methyl 3-iodo-1H-indole-6-carboxylate","150.0","?C","423.0","K","","","","","","-","","-","","-","","-"
"CCOC(=O)C1=C(N)SC=C1C1=CC=C(F)C=C1","-","-","-","Ethyl 2-amino-4-(4-fluorophenyl)thiophene-3-carboxylate","92.5 - 95.5","?C","367.0","K","","","","","","-","","-","","-","","-"
"CN1N=C(C)C=C1CCl","-","-","-","5-(Chloromethyl)-1,3-dimethyl-1H-pyrazole","65.0 - 66.0","?C","338.5","K","","","","","","-","","-","","-","","-"
"OCC1=CSC(=N1)C1=CN=CC=C1","-","-","-","(2-Pyridin-3-yl-1,3-thiazol-4-yl)methanol","120.0 - 121.0","?C","393.5","K","","","","","","-","","-","","-","","-"
"CC1=C(SC(=N1)C1CCN(CC1)C(=O)OC(C)(C)C)C=O","-","-","-","tert-Butyl 4-(5-formyl-4-methyl-1,3-thiazol-2-yl)piperidine-1-carboxylate","220.0","?C","493.0","K","","","","","","-","","-","","-","","-"
"O=CC1=CN2C=CC=CC2=N1","-","-","-","Imidazo[1,2-a]pyridine-2-carbaldehyde","78.0 - 79.0","?C","351.5","K","","","","","","-","","-","","-","","-"
"OCC1=CN2C=CSC2=N1","-","-","-","Imidazo[2,1-b]thiazol-6-ylmethanol","154.0 - 155.0","?C","427.5","K","","","","","","-","","-","","-","","-"
"N#CC1=CC=CC=C1N1C=CN=C1","-","-","-","2-(1H-Imidazol-1-yl)benzonitrile","148.0 - 151.0","?C","422.5","K","","","","","","-","","-","","-","","-"
"CSC1=CC(=NN1)C1=CC=C(F)C=C1","-","-","-","3-(4-Fluorophenyl)-5-(methylthio)-1H-pyrazole","101.0 - 103.0","?C","375.0","K","","","","","","-","","-","","-","","-"
"ClCC(=O)NC1=C(Cl)C=CC=C1","-","-","-","N1-(2-Chlorophenyl)-2-chloroacetamide","70.0 - 73.0","?C","344.5","K","","","","","","-","","-","","-","","-"
"NC(=NO)C1=CC=CC(=C1)C(O)=O","-","-","-","3-[(Z)-Amino(hydroxyimino)methyl]benzoic acid","196.0 - 197.0","?C","469.5","K","","","","","","-","","-","","-","","-"
"ClCC(=O)NC1=C(Cl)C(Cl)=CC=C1","-","-","-","N1-(2,3-Dichlorophenyl)-2-chloroacetamide","104.0 - 106.0","?C","378.0","K","","","","","","-","","-","","-","","-"
"NC1=CN=C(OC2=C(Cl)C=CC=C2Cl)C=C1","-","-","-","6-(2,6-Dichlorophenoxy)pyridin-3-amine","120.0 - 122.0","?C","394.0","K","","","","","","-","","-","","-","","-"
"CC(C)(C)OC(=O)N1CCN(CC1)C1=C(CO)C=CC=C1","-","-","-","tert-Butyl 4-[2-(hydroxymethyl)phenyl]tetrahydro-1(2H)-pyrazinecarboxylate","67.0 - 71.0","?C","342.0","K","","","","","","-","","-","","-","","-"
"ClC(=O)C1=CSC2=C1C=C(Br)C=C2","-","-","-","5-Bromobenzo[b]thiophene-3-carbonyl chloride","125.0 - 126.0","?C","398.5","K","","","","","","-","","-","","-","","-"
"OCC1=CC=C(C=C1)N1CCCCC1","-","-","-","(4-Piperidinophenyl)methanol","148.0 - 149.0","?C","421.5","K","","","","","","-","","-","","-","","-"
"ClCC1=NOC(=C1)C1=CC=CO1","-","-","-","3-(Chloromethyl)-5-(2-furyl)isoxazole","47.0 - 49.0","?C","321.0","K","","","","","","-","","-","","-","","-"
"OC(=O)C1=CC2=C(N1)C=CS2","-","-","-","4H-Thieno[3,2-b]pyrrole-5-carboxylic acid","180.0","?C","453.0","K","","","","","","-","","-","","-","","-"
"CC(=O)C=CC1=CC=C(Cl)C=C1","-","-","-","4-(4-chlorophenyl)but-3-en-2-one","55.0","?C","328.0","K","","","","","","-","","-","","-","","-"
"NS(=O)(=O)C1=CC=CC=C1F","-","-","-","2-Fluorobenzene-1-sulfonamide","163.0 - 166.0","?C","437.5","K","","","","","","-","","-","","-","","-"
"BrC1=CC=C(Br)N=N1","-","-","-","3,6-Dibromopyridazine","116.0 - 117.0","?C","389.5","K","","","","","","-","","-","","-","","-"
"CC(C)NC1=CC=C(Cl)C=C1[N+]([O-])=O","-","-","-","N1-Isopropyl-4-chloro-2-nitroaniline","72.0 - 74.0","?C","346.0","K","","","","","","-","","-","","-","","-"
"COC1=NC(Cl)=CC(=C1)C(N)=O","-","-","-","2-Chloro-6-methoxyisonicotinamide","186.0","?C","459.0","K","","","","","","-","","-","","-","","-"
"OC(=O)C(Br)C(Br)C(O)=O","-","-","-","meso-2,3-Dibromosuccinic acid","275.0","?C","548.0","K","","","","","","-","","-","","-","","-"
"CC(C)NC(=O)CC#N","-","-","-","N1-Isopropyl-2-cyanoacetamide","62.0 - 65.0","?C","336.5","K","","","","","","-","","-","","-","","-"
"NC(=O)C(F)(Br)C(F)(F)F","-","-","-","2-Bromo-2,3,3,3-tetrafluoropropanamide","83.0 - 84.0","?C","356.5","K","","","","","","-","","-","","-","","-"
"OCC1=CC=C(C=C1)C1=CC=CS1","-","-","-","(4-Thien-2-ylphenyl)methanol","112.0","?C","385.0","K","","","","","","-","","-","","-","","-"
"O=CC1=CN2C=CSC2=N1","-","-","-","Imidazo[2,1-b]thiazole-6-carbaldehyde","71.0","?C","344.0","K","","","","","","-","","-","","-","","-"
"NC1=CC(=CC=C1)N1CCOCC1","-","-","-","3-Morpholin-4-ylaniline","118.0 - 119.0","?C","391.5","K","","","","","","-","","-","","-","","-"
"CCOC(=O)C1=NOC(=C1)C1=CC=CO1","-","-","-","Ethyl 5-(2-furyl)isoxazole-3-carboxylate","49.0 - 50.0","?C","322.5","K","","","","","","-","","-","","-","","-"
"CCNC(=O)CC#N","-","-","-","N1-Ethyl-2-cyanoacetamide","73.0 - 74.0","?C","346.5","K","","","","","","-","","-","","-","","-"
"COC(=O)C1=C(Cl)C(=C(SC)S1)S(=O)(=O)C(C)C","-","-","-","Methyl 3-chloro-4-(isopropylsulfonyl)-5-(methylthio)thiophene-2-carboxylate","141.0 - 143.5","?C","415.2","K","","","","","","-","","-","","-","","-"
"CC1=NSC(=N1)C1=CC=C(Cl)C=C1","-","-","-","5-(4-Chlorophenyl)-3-methyl-1,2,4-thiadiazole","81.0 - 83.0","?C","355.0","K","","","","","","-","","-","","-","","-"
"COC1=CC=C(C=C(CC(O)=O)C(O)=O)C=C1","-","-","-","2-(4-Methoxybenzylidene)succinic acid","186.0 - 188.0","?C","460.0","K","","","","","","-","","-","","-","","-"
"CN(C(C)=O)C1=CC=C(N)C=C1","-","-","-","N1-(4-Aminophenyl)-N1-methylacetamide","70.0 - 71.0","?C","343.5","K","","","","","","-","","-","","-","","-"
"COC(=O)C1=C(O)C(Br)=C(Br)S1","-","-","-","Methyl 4,5-dibromo-3-hydroxythiophene-2-carboxylate","129.0 - 131.0","?C","403.0","K","","","","","","-","","-","","-","","-"
"ClC1=C(C=O)C(=NN1C1=CC=CC=C1)C1=CC=CC=C1","-","-","-","5-chloro-1,3-diphenyl-1H-pyrazole-4-carbaldehyde","109.0 - 110.0","?C","382.5","K","","","","","","-","","-","","-","","-"
"CSC1=C(C#N)C(=C(S1)C(O)=O)C1=CC(Cl)=CC=C1","-","-","-","3-(3-Chlorophenyl)-4-cyano-5-(methylthio)thiophene-2-carboxylic acid","209.0 - 211.0","?C","483.0","K","","","","","","-","","-","","-","","-"
"O=CC1=CC(=CC=C1)N1C=CC=N1","-","-","-","3-(1H-Pyrazol-1-yl)-benzaldehyd","38.0 - 39.0","?C","311.5","K","","","","","","-","","-","","-","","-"
"N#CC1=CC=CC(=C1)N1CCCCC1","-","-","-","3-Piperidin-1-ylbenzonitrile","133.0 - 136.0","?C","407.5","K","","","","","","-","","-","","-","","-"
"CC1=NC(=NO1)C1=CC=C(C=C1)C(Cl)=O","-","-","-","4-(5-Methyl-1,2,4-oxadiazol-3-yl)benzoyl chloride","112.0 - 113.0","?C","385.5","K","","","","","","-","","-","","-","","-"
"OC(=O)C1CSC(=N1)C1=CN=CC=C1","-","-","-","2-Pyrid-3-yl-4,5-dihydro-1,3-thiazole-4-carboxylic acid","180.0 - 181.0","?C","453.5","K","","","","","","-","","-","","-","","-"
"CC1=C2CCCC2=C(O)C=C1","-","-","-","7-Methylindan-4-ol","82.0 - 83.0","?C","355.5","K","","","","","","-","","-","","-","","-"
"OC(=O)C1=CC=CN=C1OC1=CC=C2OCOC2=C1","-","-","-","2-(1,3-Benzodioxol-5-yloxy)nicotinic acid","181.0 - 183.0","?C","455.0","K","","","","","","-","","-","","-","","-"
"CCOC(=O)C1=C2CCCC(=O)C2=C(SCC2=CC=CC=C2)S1","-","-","-","Ethyl 3-(benzylthio)-4-oxo-4,5,6,7-tetrahydrobenzo[c]thiophene-1-carboxylate","139.0 - 141.0","?C","413.0","K","","","","","","-","","-","","-","","-"
"CCOC(=O)C1=CC=C(COC(C)=O)O1","-","-","-","Ethyl 5-[(acetyloxy)methyl]-2-furoate","42.3","?C","315.3","K","","","","","","-","","-","","-","","-"
"O=C1NC(=O)C(=CN1C1CC1)C#N","-","-","-","1-Cyclopropyl-2,4-dioxo-1,2,3,4-tetrahydropyrimidine-5-carbonitrile","254.0 - 258.0","?C","529.0","K","","","","","","-","","-","","-","","-"
"CC1=NN(N=C1C(N)=O)C1=CC=CC=C1","-","-","-","5-Methyl-2-phenyl-2H-1,2,3-triazole-4-carboxamide","175.0 - 177.0","?C","449.0","K","","","","","","-","","-","","-","","-"
"C1C2CC3CC1CC(C2)(C3)SSC12CC3CC(CC(C3)C1)C2","-","-","-","Di(1-adamantyl) disulfide","225.0 - 228.0","?C","499.5","K","","","","","","-","","-","","-","","-"
"CC(=O)NC1=CC=CN=C1","-","-","-","N-pyridin-3-ylacetamide","131.0 - 133.0","?C","405.0","K","","","","","","-","","-","","-","","-"
"CC(SCC1=CC=CC=C1)C(O)=O","-","-","-","2-(Benzylthio)propanoic acid","79.0 - 81.0","?C","353.0","K","","","","","","-","","-","","-","","-"
"NC1=NC(=CC(=N1)C(F)(F)F)C1=CC=C(Br)C=C1","-","-","-","4-(4-Bromophenyl)-6-(trifluoromethyl)-2-pyrimidinylamine","216.0 - 218.0","?C","490.0","K","","","","","","-","","-","","-","","-"
"CC(C)N1C2=C(C=C(C=C2)C(O)=O)N=C1C(F)(F)F","-","-","-","1-Isopropyl-2-(trifluoromethyl)-1H-benzimidazole-5-carboxylic acid","172.0 - 176.0","?C","447.0","K","","","","","","-","","-","","-","","-"
"CC1=C(N=C(O1)C(=O)NN)C1=CC=CC=C1","-","-","-","5-Methyl-4-phenyl-1,3-oxazole-2-carbohydrazide","124.0 - 126.0","?C","398.0","K","","","","","","-","","-","","-","","-"
"NNC(=O)C1=CSC(=N1)C1=CC=CC=C1","-","-","-","2-Phenyl-1,3-thiazole-4-carbohydrazide","137.0 - 138.0","?C","410.5","K","","","","","","-","","-","","-","","-"
"[O-][N+](=O)C1=C(SC2=CC=CC=C2)C=CC(Cl)=C1","-","-","-","4-Chloro-2-nitro-1-(phenylthio)benzene","82.0 - 84.0","?C","356.0","K","","","","","","-","","-","","-","","-"
"[O-][N+](=O)C1=C(C=CC(Cl)=C1)S(=O)(=O)C1=CC=CC=C1","-","-","-","4-Chloro-2-nitro-1-(phenylsulfonyl)benzene","115.0 - 117.0","?C","389.0","K","","","","","","-","","-","","-","","-"
"CN(N)C1=CC=C(Cl)C=C1[N+]([O-])=O","-","-","-","1-(4-Chloro-2-nitrophenyl)-1-methylhydrazine","91.0","?C","364.0","K","","","","","","-","","-","","-","","-"
"COC(=O)C1=C(OC2=CC=C(C=C2[N+]([O-])=O)C(F)(F)F)C=CS1","-","-","-","Methyl 3-[2-nitro-4-(trifluoromethyl)phenoxy]thiophene-2-carboxylate","111.5 - 113.0","?C","385.2","K","","","","","","-","","-","","-","","-"
"NS(=O)(=O)C1=C(Cl)C=CN=C1","-","-","-","4-Chloro-3-pyridinesulfonamide","150.0 - 155.0","?C","425.5","K","","","","","","-","","-","","-","","-"
"CC(=O)C1=CC2=CC(Br)=CC=C2O1","-","-","-","1-(5-Bromo-1-benzofuran-2-yl)ethanone","111.0","?C","384.0","K","","","","","","-","","-","","-","","-"
"BrC1=COC2=C1C=C(Br)C=C2","-","-","-","3,5-Dibromobenzo[b]furan","77.0 - 78.0","?C","350.5","K","","","","","","-","","-","","-","","-"
"NC(=O)C1=CNCCC1","-","-","-","1,4,5,6-Tetrahydropyridine-3-carboxamide","203.0 - 205.0","?C","477.0","K","","","","","","-","","-","","-","","-"
"CCOC(=O)CSC1=C(C)NC2=C1C=CC=C2","-","-","-","Ethyl 2-[(2-methyl-1H-indol-3-yl)thio]acetate","72.0 - 75.0","?C","346.5","K","","","","","","-","","-","","-","","-"
"CC1=CC=C(C=C1)C1=NC=NS1","-","-","","5-(4-Methylphenyl)-1,2,4-thiadiazole","61.0 - 64.0","?C","335.5","K","","","","","","-","","-","","-","","-"
"FC12CC3CC(CC(C3)C1)C2","-","-","-","1-Fluoroadamantane","225.0","?C","498.0","K","","","","","","-","","-","","-","","-"
"CC(C)(C)C1=CC=C(OC(C)(C)C(O)=O)C=C1","-","-","-","2-[4-(tert-Butyl)phenoxy]-2-methylpropanoic acid","97.0 - 98.0","?C","370.5","K","","","","","","-","","-","","-","","-"
"CS(=O)(=O)C1CS(=O)(=O)CC1O","-","-","-","3-Hydroxy-4-(methylsulfonyl)tetrahydro-1H-1lambda6-thiophene-1,1-dione","200.0 - 210.0","?C","478.0","K","","","","","","-","","-","","-","","-"
"[O-][N+](=O)C1=CC=C(C=C1)C1=CC=NO1","-","-","-","5-(4-Nitrophenyl)isoxazole","172.0 - 174.0","?C","446.0","K","","","","","","-","","-","","-","","-"
"CNC1=NC=NC(Cl)=C1[N+]([O-])=O","-","-","-","N4-Methyl-6-chloro-5-nitropyrimidin-4-amine","134.0 - 139.0","?C","409.5","K","","","","","","-","","-","","-","","-"
"CCSC1=NC=CC=C1C(Cl)=O","-","-","-","2-(Ethylthio)pyridine-3-carbonyl chloride","53.0 - 55.0","?C","327.0","K","","","","","","-","","-","","-","","-"
"CC1(C)CCC(O)CC1","-","-","-","4,4-Dimethylcyclohexan-1-ol","28.0 - 30.0","?C","302.0","K","","","","","","-","","-","","-","","-"
"COC1=C(OC)C(Cl)=C(C=CC#N)C=C1","-","-","-","3-(2-Chloro-3,4-dimethoxyphenyl)acrylonitrile","107.0 - 110.0","?C","381.5","K","","","","","","-","","-","","-","","-"
"CC(=O)C1=CC=CC(Cl)=C1O","-","-","-","1-(3-Chloro-2-hydroxyphenyl)ethan-1-one","80.0 - 83.0","?C","354.5","K","","","","","","-","","-","","-","","-"
"CC1=CC(=C(N)C(Br)=C1)[N+]([O-])=O","-","-","-","2-Bromo-4-methyl-6-nitroaniline","58.0 - 59.0","?C","331.5","K","","","","","","-","","-","","-","","-"
"OC1=C(CC=C)C(C=O)=CC=C1","-","-","-","2-Allyl-3-hydroxybenzaldehyde","104.0 - 106.0","?C","378.0","K","","","","","","-","","-","","-","","-"
"COC1=CC=CC(OC)=C1N=C=O","-","-","-","2,6-Dimethoxyphenyl isocyanate","45.0 - 47.0","?C","319.0","K","","","","","","-","","-","","-","","-"
"S=C1NCCCCN1","-","-","-","1,3-Diazepane-2-thione","178.0 - 180.0","?C","452.0","K","","","","","","-","","-","","-","","-"
"CCSC1=C2C(CC(C)(C)CC2=O)=C(S1)C#N","-","-","-","3-(Ethylthio)-6,6-dimethyl-4-oxo-4,5,6,7-tetrahydrobenzo[c]thiophene-1-carbonitrile","150.0 - 153.0","?C","424.5","K","","","","","","-","","-","","-","","-"
"CNC(=S)N(C)C","-","-","-","N,N,N'-Trimethylthiourea","126.0 - 127.0","?C","399.5","K","","","","","","-","","-","","-","","-"
"COC1=CC2=NSN=C2C=C1","-","-","-","5-Methoxy-2,1,3-benzothiadiazole","82.0 - 83.0","?C","355.5","K","","","","","","-","","-","","-","","-"
"COC1=CC=CC=C1NC(=S)NN","-","-","-","N-(2-Methoxyphenyl)hydrazine-1-carbothioamide","151.0 - 153.0","?C","425.0","K","","","","","","-","","-","","-","","-"
"COC1=CC(Cl)=C(OC)C=C1N=C=S","-","-","-","4-Chloro-2,5-dimethoxyphenyl isothiocyanate","84.0 - 86.0","?C","358.0","K","","","","","","-","","-","","-","","-"
"OC(=O)C1=C(Br)C2=C(N1)C=CC=C2","-","-","-","3-Bromoindole-2-carboxylic acid","185.0 - 188.0","?C","459.5","K","","","","","","-","","-","","-","","-"
"CC1=C2N=CC(C(O)=O)=C(O)C2=CC(Cl)=C1","-","-","-","6-Chloro-4-hydroxy-8-methylquinoline-3-carboxylic acid","303.0 - 308.0","?C","578.5","K","","","","","","-","","-","","-","","-"
"CC1=CC(C(O)C(O)=O)=C(C)C=C1","-","-","-","2-(2,5-Dimethylphenyl)-2-hydroxyacetic acid","115.0 - 118.0","?C","389.5","K","","","","","","-","","-","","-","","-"
"OC1=CC=CC2=C1C1=C(N2)C=CC=C1","-","-","-","4-Hydroxycarbazole","169.0 - 173.0","?C","444.0","K","","","","","","-","","-","","-","","-"
"[O-][N+](=O)C1=CC=CC(=C1)C1=NOC(CCl)=N1","-","-","-","5-(Chloromethyl)-3-(3-nitrophenyl)-1,2,4-oxadiazole","60.0 - 62.0","?C","334.0","K","","","","","","-","","-","","-","","-"
"CC1=CN=C(Cl)C(=C1)[N+]([O-])=O","-","-","-","2-Chloro-3-nitro-5-picoline","46.0 - 50.0","?C","321.0","K","","","","","","-","","-","","-","","-"
"COC(=O)C1=C(N)C2=C(S1)C1=C(SC2)C=CC(Cl)=C1","-","-","-","Methyl 3-amino-8-chloro-4H-benzo[b]thieno[2,3-d]thiine-2-carboxylate","120.0","?C","393.0","K","","","","","","-","","-","","-","","-"
"NC1=CC=C(C=C1)C(O)(C1=CC=C(N)C=C1)C1=CC=C(N)C=C1","-","-","-","Pararosaniline base","205.0","?C","478.0","K","","","","","","-","","-","","-","","-"
"ClC1=CC=C(C=C1)C(C#N)N1CCOCC1","-","-","-","2-(4-Chlorophenyl)-2-morpholinoacetonitrile","76.0 - 77.0","?C","349.5","K","","","","","","-","","-","","-","","-"
"COC1=CC2=C(C=C1)C=C(C(=O)C1=CC=CC=C1)C(=O)O2","-","-","-","3-Benzoyl-7-methoxycoumarin","150.0 - 153.0","?C","424.5","K","","","","","","-","","-","","-","","-"
"ClC1=CC(C(=O)C2=CC=CC=C2)=C(NC=O)C=C1","-","-","-","N-(2-Benzoyl-4-chlorophenyl)formamide","89.0 - 91.0","?C","363.0","K","","","","","","-","","-","","-","","-"
"CC(C)(C)OC(=O)NC1=CC=C(CN)C=C1","-","-","-","tert-Butyl N-[4-(aminomethyl)phenyl]carbamate","89.0 - 94.0","?C","364.5","K","","","","","","-","","-","","-","","-"
"CC1=CC=C(C)C(CC(O)=O)=C1","-","-","-","2,5-DIMETHYLPHENYLACETIC ACID","128.0 - 132.0","?C","403.0","K","","","","","","-","","-","","-","","-"
"CCNCC(O)=O","-","-","-","N-Ethylglycine","182.0 - 186.0","?C","457.0","K","","","","","","-","","-","","-","","-"
"NC1=CC=C(SCC(O)=O)C=C1","-","-","-","2-(4-Aminophenylthio)acetic acid","193.0 - 203.0","?C","471.0","K","","","","","","-","","-","","-","","-"
"NC1=C(O)C(Cl)=CC(Cl)=C1","-","-","-","2-AMINO-4,6-DICHLOROPHENOL","97.0","?C","370.0","K","","","","","","-","","-","","-","","-"
"OC1=C(I)C=CC(C=O)=C1","-","-","-","3-Hydroxy-4-iodobenzaldehyde","131.0 - 132.0","?C","404.5","K","","","","","","-","","-","","-","","-"
"CC(C)(C)OC(=O)C(C)(C)SC1=NN=C(N)S1","-","-","-","tert-Butyl 2-[(5-amino-1,3,4-thiadiazol-2-yl)thio]-2-methylpropanoate","175.0 - 176.0","?C","448.5","K","","","","","","-","","-","","-","","-"
"C=CCN1C(=O)OC(=O)C2=C1C=CC=C2","-","-","-","1-Allyl-1,4-dihydro-2H-3,1-benzoxazine-2,4-dione","111.0 - 113.0","?C","385.0","K","","","","","","-","","-","","-","","-"
"BrC1=NC(Br)=C(Br)C(Br)=C1Br","-","-","-","2,3,4,5,6-Pentabromopyridine","206.0 - 208.0","?C","480.0","K","","","","","","-","","-","","-","","-"
"OCC1=C(O)C(Cl)=CC(Cl)=C1","-","-","-","2,4-dichloro-6-(hydroxymethyl)phenol","82.0 - 83.0","?C","355.5","K","","","","","","-","","-","","-","","-"
"CC1=NC(=CS1)C1=CC=C(N)C=C1","-","-","-","4-(2-Methyl-1,3-thiazol-4-yl)phenylamine","140.0 - 141.0","?C","413.5","K","","","","","","-","","-","","-","","-"
"CC(=O)NC1=CC=C(C(C)=O)C(O)=C1","-","-","-","N1-(4-Acetyl-3-hydroxyphenyl)acetamide","143.0 - 145.0","?C","417.0","K","","","","","","-","","-","","-","","-"
"NC1=C(OCCN2CCOCC2)C=CC=C1","-","-","-","2-(2-Morpholin-4-ylethoxy)aniline","41.0 - 42.0","?C","314.5","K","","","","","","-","","-","","-","","-"
"[O-][N+](=O)C1=CC(OCCN2CCOCC2)=CC=C1","-","-","-","4-[2-(3-Nitrophenoxy)ethyl]morpholine","50.0 - 53.0","?C","324.5","K","","","","","","-","","-","","-","","-"
"NC1=CC=C(OCCN2CCOCC2)C=C1","-","-","-","4-(2-Morpholin-4-ylethoxy)aniline","53.0 - 57.0","?C","328.0","K","","","","","","-","","-","","-","","-"