"SMILES","CASRN","EXTERNALID","N","NAME","Melting Point","UNIT {Melting Point}","Melting Point {measured, converted}","UNIT {Melting Point}","Dataset","comment (property)","comment (chemical)","measurement method","Pressure","UNIT {Pressure}","Som set numeric condition","UNIT {Som set numeric condition}","Resp set numeric condition","UNIT {Resp set numeric condition}","Quality code","UNIT {Quality code}"
"CSCCC(NC(=O)C1=CC=CC=C1)C(O)=O","-","-","-","N-Benzoyl-dl-methionine","150.0 - 154.0","?C","425.0","K","","","","","","-","","-","","-","","-"
"CSCCC(NS(=O)(=O)C1=CC=C(C)C=C1)C(O)=O","-","-","-","N-(p-Toluenesulfonyl)-DL-methionine","105.0 - 108.0","?C","379.5","K","","","","","","-","","-","","-","","-"
"COC1=CC=C2C=C(C=CC2=C1)C(C)O","-","-","-","DL-6-Methoxy-alpha-methyl-2-napthalenemethanol","111.0 - 114.0","?C","385.5","K","","","","","","-","","-","","-","","-"
"CCCCCCCCCCCCCC=CC(O)C(N)CO","-","-","-","D-erythro-Sphingosine","81.0 - 82.0","?C","354.5","K","","","","","","-","","-","","-","","-"
"CCCCCCCCCCCCCCCC(=O)NC(CO)C(O)C=CCCCCCCCCCCCCC","-","-","-","N-Palmitoyl-D-erythro-sphingosine","94.0 - 95.0","?C","367.5","K","","","","","","-","","-","","-","","-"
"CCCCCCCCCCCCCCCCCC(=O)NC(CO)C(O)C=CCCCCCCCCCCCCC","-","-","-","N-Stearoyl-D-erythro-sphingosine","99.0 - 101.0","?C","373.0","K","","","","","","-","","-","","-","","-"
"OC(=O)CC12CC3CC(CC(C3)C1)C2","-","-","-","1-Adamantaneacetic acid","138.0 - 140.0","?C","412.0","K","","","","","","-","","-","","-","","-"
"OC(=O)C1=CC2=C(N1)C=CC(F)=C2","-","-","-","5-Fluoroindole-2-carboxylic acid","254.0 - 258.0","?C","529.0","K","","","","","","-","","-","","-","","-"
"OC(=O)C=CC1=CNC2=C1C=CC=C2","-","-","-","trans-3-Indoleacrylic acid","184.0 - 187.0","?C","458.5","K","","","","","","-","","-","","-","","-"
"CCCCOC1=CC(=C(N)C=C1)[N+]([O-])=O","-","-","-","4-Butoxy-2-nitroaniline","64.0 - 66.0","?C","338.0","K","","","","","","-","","-","","-","","-"
"COC(C)C(N)=O","-","-","-","(S)-(-)-2-Methoxypropionamide","80.0 - 84.0","?C","355.0","K","","","","","","-","","-","","-","","-"
"CC(O)C(N)=O","-","-","-","(S)-(-)-Lactamide","51.0 - 55.0","?C","326.0","K","","","","","","-","","-","","-","","-"
"OC(=O)C1CC2=C(CN1)C=CC=C2","-","-","-","L-1,2,3,4-Tetrahydroisoquinoline-3-carboxylic acid","300.0","?C","573.0","K","","","","","","-","","-","","-","","-"
"OC1=CC=C(O)C2=C1C(=O)C(Cl)=C(Cl)C2=O","-","-","-","2,3-Dichloro-5,8-dihydroxy-1,4-naphtoquinone","197.0 - 200.0","?C","471.5","K","","","","","","-","","-","","-","","-"
"OC1=CC(=O)C2=C3C(C=CC=C13)=CC=C2","-","-","-","3-Hydroxy-1H-phenalen-1-one","261.0 - 264.0","?C","535.5","K","","","","","","-","","-","","-","","-"
"O=C1CC(CC(=O)C1)C1=CC=CC=C1","-","-","-","5-Phenyl-1,3-cyclohexanedione","188.0","?C","461.0","K","","","","","","-","","-","","-","","-"
"C1CSC2=C(SC(S2)=C2SC3=C(S2)SCCS3)S1","-","-","-","Bis(ethylenedithio)tetrathiafulvalene","244.0","?C","517.0","K","","","","","","-","","-","","-","","-"
"OP(O)(=O)CCCCP(O)(O)=O","-","-","-","1,4-Butanediphosphonic acid","219.0 - 221.0","?C","493.0","K","","","","","","-","","-","","-","","-"
"CCOC(=O)C(CCC1=CC=CC=C1)NC(C)C(O)=O","-","-","-","N-[(S)-(+)-1-Ethoxycarbonyl-3-phenylpropyl]-L-alanine","148.0 - 153.0","?C","423.5","K","","","","","","-","","-","","-","","-"
"CN(C)C(=O)C(O)C(O)C(=O)N(C)C","-","-","-","(-)-N,N,N',N'-Tetramethyl-D-tartaramide","186.0 - 188.0","?C","460.0","K","","","","","","-","","-","","-","","-"
"C1OCC2OCOC3COCOC3C2O1","-","-","-","1,3:2,5:4,6-tri-O-methylene-D-mannitol","232.0 - 233.0","?C","505.5","K","","","","","","-","","-","","-","","-"
"C1OC2(CCCCC2)OC1C1OC2(CCCCC2)OC1C1COC2(CCCCC2)O1","-","-","-","1,2:3,4:5,6-Tri-O-cyclohexylidene-D-mannitol","82.0 - 84.0","?C","356.0","K","","","","","","-","","-","","-","","-"
"FC1=CC=C(C=C1)C(=O)C=CC1=CC=CC=C1","-","-","-","4'-Fluorochalcone","79.0 - 80.0","?C","352.5","K","","","","","","-","","-","","-","","-"
"[O-][N+](=O)C1=CC=CC(C=CC(=O)C2=CC=C(F)C=C2)=C1","-","-","-","3-Nitro-4'-fluorochalcone","166.0 - 167.0","?C","439.5","K","","","","","","-","","-","","-","","-"
"COC1=C(CO)C2=CC=CC=C2C=C1","-","-","-","2-Methoxy-1-naphthalenemethanol","100.0 - 104.0","?C","375.0","K","","","","","","-","","-","","-","","-"
"OC(C(O)=O)C1=CC=CC=C1Cl","-","-","-","(R)-(-)-2-Chloromandelic acid","118.0 - 121.0","?C","392.5","K","","","","","","-","","-","","-","","-"
"CC1=CC=C(C=C1)S(=O)(=O)NCCCCC(N)C(O)=O","-","-","-","Nepsilon-Tosyl-L-lysine","231.0 - 234.0","?C","505.5","K","","","","","","-","","-","","-","","-"
"NC(CCCCNC(=O)C1=CC=CC=C1)C(O)=O","-","-","-","Nepsilon-Benzoyl-L-lysine","251.0 - 256.0","?C","526.5","K","","","","","","-","","-","","-","","-"
"CC1=CC=C(C=C1)C(=O)CCC(O)=O","-","-","-","3-(4-Methylbenzoyl)propionic acid","129.0","?C","402.0","K","","","","","","-","","-","","-","","-"
"ClC1C(=O)NC(=O)NC1=O","-","-","-","5-Chlorobarbituric acid","320.0","?C","593.0","K","","","","","","-","","-","","-","","-"
"OCCCCCCCC(O)=O","-","-","-","8-Hydroxyoctanoic acid","51.0 - 57.0","?C","327.0","K","","","","","","-","","-","","-","","-"
"CC(C)(C)NC(=O)C1CC2CCCCC2CN1","-","-","-","[(3S)-4-Azabicyclo[4.4.0]dec-3-yl]-N-(tert-butyl)carboxamide","115.0 - 117.0","?C","389.0","K","","","","","","-","","-","","-","","-"
"N=C1NC(=N)C2=CC=CC=C12","-","-","-","1,3-Diiminoisoindoline","190.0","?C","463.0","K","","","","","","-","","-","","-","","-"
"CC1=NN(C(Cl)=C1C=O)C1=CC=CC=C1","-","-","-","5-Chloro-3-methyl-1-phenylpyrazole-4-carboxaldehyde","144.0 - 148.0","?C","419.0","K","","","","","","-","","-","","-","","-"
"OCC1=CC(OCC2=CC=CC=C2)=CC(OCC2=CC=CC=C2)=C1","-","-","-","3,5-Dibenzyloxybenzyl alcohol","78.0 - 82.0","?C","353.0","K","","","","","","-","","-","","-","","-"
"COC(=O)C1=CC(OCC2=CC=CC=C2)=CC(OCC2=CC=CC=C2)=C1","-","-","-","Methyl 3,5-dibenzyloxybenzoate","67.0 - 70.0","?C","341.5","K","","","","","","-","","-","","-","","-"
"C1=CC2=C(C=C1)C1=C3C2=CC=CC3=C2C3=C(C=CC=C3)C3=C2C1=CC=C3","-","-","-","Rubicene","305.0","?C","578.0","K","","","","","","-","","-","","-","","-"
"OC(=O)C1CC2=CC=CC=C2CN1C(=O)OCC1=CC=CC=C1","-","-","-","(3S)-2-[Benzyloxycarbonyl]-1,2,3,4-tetrahydroisoquinoline-3-carboxylic acid","137.0 - 141.0","?C","412.0","K","","","","","","-","","-","","-","","-"
"CCN1CCN(C(=O)NC(C(O)=O)C2=CC=C(O)C=C2)C(=O)C1=O","-","-","-","(2R)-2-[(4-Ethyl-2,3-dioxopiperazinyl)carbonylamino]-2-(4-hydroxyphenyl)acetic acid","205.0","?C","478.0","K","","","","","","-","","-","","-","","-"
"CCN1CCN(C(=O)NC(C(O)=O)C2=CC=CC=C2)C(=O)C1=O","-","-","-","(2R)-2-[(4-Ethyl-2,3-dioxopiperazinyl)carbonylamino]-2-phenylacetic acid","171.0","?C","444.0","K","","","","","","-","","-","","-","","-"
"OC(=O)C1=CC(F)=C(Cl)N=C1Cl","-","-","-","2,6-Dichloro-5-fluoropyridine-3-carboxylic acid","154.0 - 155.0","?C","427.5","K","","","","","","-","","-","","-","","-"
"CCCCCCCCC(O)CO","-","-","-","(R)-1,2-Decanediol","60.0 - 62.0","?C","334.0","K","","","","","","-","","-","","-","","-"
"CCCCCCCCCCC(O)CO","-","-","-","(S)-1,2-Dodecanediol","69.0 - 72.0","?C","343.5","K","","","","","","-","","-","","-","","-"
"OC(=O)C1=CC=CC2=C1C1=C(C2)C=CC=C1","-","-","-","9H-Fluorene-4-carboxylic acid","192.0 - 194.0","?C","466.0","K","","","","","","-","","-","","-","","-"
"OC(=O)C=CC1=CC(OC(F)(F)F)=CC=C1","-","-","-","3-(Trifluoromethoxy)cinnamic acid","93.0 - 96.0","?C","367.5","K","","","","","","-","","-","","-","","-"
"COC1=CC2=C(CCC2=O)C=C1","-","-","-","6-Methoxy-1-indanone","107.0 - 111.0","?C","382.0","K","","","","","","-","","-","","-","","-"
"NC1=C(C=O)C=C(Br)C=C1Br","-","-","-","2-Amino-3,5-dibromobenzaldehyde","136.0 - 139.0","?C","410.5","K","","","","","","-","","-","","-","","-"
"CC(C)(C)NCC(O)CO","-","-","-","(S)-3-tert-Butylamino-1,2-propanediol","85.0 - 89.0","?C","360.0","K","","","","","","-","","-","","-","","-"
"COC1=CC=C(C=C1)C1SC2=CC=CC=C2NC(=O)C1O","-","-","-","(2S-cis)-(+)-2,3-Dihydro-3-hydroxy-2-(4-methoxyphenyl)-1,5-benzothiazepin-4(5H)-one","203.0 - 207.0","?C","478.0","K","","","","","","-","","-","","-","","-"
"CCOC(=O)C1=C(N)CCCC1","-","-","-","Ethyl 2-amino-1-cyclohexene-1-carboxylate","70.0 - 74.0","?C","345.0","K","","","","","","-","","-","","-","","-"
"OC(=O)C1CCCCC1NC(=O)OCC1=CC=CC=C1","-","-","-","cis-2-(Benzyloxycarbonylamino)-cyclohexanecarboxylic acid","130.0 - 136.0","?C","406.0","K","","","","","","-","","-","","-","","-"
"OC(=O)C1CC=CCC1NC(=O)OCC1=CC=CC=C1","-","-","-","cis-2-(Benzyloxycarbonylamino)-4-cyclohexene-1-carboxylic acid","118.0 - 124.0","?C","394.0","K","","","","","","-","","-","","-","","-"
"OC(=O)C1C2CC(C=C2)C1NC(=O)OCC1=CC=CC=C1","-","-","-","3-exo-(Benzyloxycarbonylamino)bicyclo]2.2.1]hept-5-ene-2-exo-carboxylic acid","119.0 - 123.0","?C","394.0","K","","","","","","-","","-","","-","","-"
"CC1=CC=C(C=C1)C(N)CC(O)=O","-","-","-","3-Amino-3-(p-tolyl)propionic acid","223.0 - 227.0","?C","498.0","K","","","","","","-","","-","","-","","-"
"NC(CC(O)=O)C1=CC=C(Cl)C=C1","-","-","-","3-Amino-3-(p-chlorophenyl)propionic acid","243.0 - 245.0","?C","517.0","K","","","","","","-","","-","","-","","-"
"NC(CC(O)=O)C1CCCCC1","-","-","-","3-Amino-3-cyclohexylpropionic acid","234.0 - 235.0","?C","507.5","K","","","","","","-","","-","","-","","-"
"CC(C)(C)OC(=O)NC1(CCC2=CC=CC=C2C1)C(O)=O","-","-","-","2-(tert-Butoxycarbonylamino)-1,2,3,4-tetrahydronaphthalene-2-carboxylic acid","185.0 - 187.0","?C","459.0","K","","","","","","-","","-","","-","","-"
"OC(=O)CC1NCCC2=C1C=CC=C2","-","-","-","1,2,3,4-Tetrahydroisoquinoline-1-acetic acid","248.0 - 251.0","?C","522.5","K","","","","","","-","","-","","-","","-"
"CCOC1=C(OCC)C=C2C(CC(O)=O)NCCC2=C1","-","-","-","6,7-Diethoxy-1,2,3,4-tetrahydroisoquinoline-1-acetic acid","259.0 - 260.0","?C","532.5","K","","","","","","-","","-","","-","","-"
"NC1CC=CCC1C(N)=O","-","-","-","trans-2-Amino-4-cyclohexene-1-carboxamide","163.0 - 167.0","?C","438.0","K","","","","","","-","","-","","-","","-"
"[O-][N+](=O)C1=CC2=C(NC(=S)N2)C=C1","-","-","-","2-Mercapto-5-nitrobenzimidazole","275.0","?C","548.0","K","","","","","","-","","-","","-","","-"
"OC(=O)CSC1=NC=CC=N1","-","-","-","(2-Pyrimidylthio)acetic acid","200.0 - 203.0","?C","474.5","K","","","","","","-","","-","","-","","-"
"NC(CO)C(O)C1=CC=CC=C1","-","-","-","(1R,2R)-2-Amino-1-phenyl-1,3-propanediol","110.0 - 114.0","?C","385.0","K","","","","","","-","","-","","-","","-"
"COC1=CC(C(O)=O)=C(C=C1OC)[N+]([O-])=O","-","-","-","4,5-Dimethoxy-2-nitrobenzoic acid","195.0 - 197.0","?C","469.0","K","","","","","","-","","-","","-","","-"
"CC(CSC(C)=O)C(=O)N1CCCC1C(O)=O","-","-","-","N-[3-(Acetylthio)-(2S)-methyl-1-oxopropyl]-L-proline hydrate","76.0 - 82.0","?C","352.0","K","","","","","","-","","-","","-","","-"
"NC(CO)C(O)C1=CC=C(C=C1)[N+]([O-])=O","-","-","-","(1R,2R)-2-Amino-1-(4-nitrophenyl)propane-1,3-diol","160.0 - 166.0","?C","436.0","K","","","","","","-","","-","","-","","-"
"CCC(=O)N1C(CC2=CC=CC=C2)COC1=O","-","-","-","(4S)-(+)-4-Benzyl-3-propionyl-2-oxazolidinone","42.0 - 44.0","?C","316.0","K","","","","","","-","","-","","-","","-"
"COC1=CC(N)=C(C=C1OC)C(O)=O","-","-","-","2-Amino-4,5-dimethoxybenzoic acid","155.0 - 160.0","?C","430.5","K","","","","","","-","","-","","-","","-"
"OC(=O)C=CC1=C(C=CC=C1)C(O)=O","-","-","-","2-Carboxycinnamic acid","197.0 - 202.0","?C","472.5","K","","","","","","-","","-","","-","","-"
"CN(C)C(=S)NN","-","-","-","4,4-Dimethyl-3-thiosemicarbazide","149.0 - 153.0","?C","424.0","K","","","","","","-","","-","","-","","-"
"OCC(N1CC=CC1=O)C1=CC=CC=C1","-","-","-","(R)-1-(2-Hydroxy-1-phenylethyl)-1,5-dihydropyrrol-2-one","103.0","?C","376.0","K","","","","","","-","","-","","-","","-"
"CON=C(C(=O)SC1=NC2=C(S1)C=CC=C2)C1=CSC(N)=N1","-","-","-","S-2-Benzothiazolyl 2-amino-alpha-(methoxyimino)-4-thiazolethiolacetate","126.0 - 130.0","?C","401.0","K","","","","","","-","","-","","-","","-"
"CC(C)(C)OC(=O)C(C)(C)ON=C(C(O)=O)C1=CSC(N)=N1","-","-","-","(Z)-2-Amino-alpha-[1-(tert-butoxycarbonyl)]-1-1-methylethoxyimino-4-thiazolacetic acid","180.0","?C","453.0","K","","","","","","-","","-","","-","","-"
"CCOC(=O)CC(=O)C1=CC(F)=C(Cl)N=C1Cl","-","-","-","Ethyl 3-[2,6-dichloro-5-fluoro-(3-pyridiyl)]-3-oxopropanoate","68.0 - 72.0","?C","343.0","K","","","","","","-","","-","","-","","-"
"COC1=CC(O)=C(C=C1)[N+]([O-])=O","-","-","-","5-Methoxy-2-nitrophenol","90.0 - 94.0","?C","365.0","K","","","","","","-","","-","","-","","-"
"OC1=CC=C(C=C1)C(C1=CC=CC=C1)(C1=CC=CC=C1)C1=CC=CC=C1","-","-","-","4-Tritylphenol","283.0 - 289.0","?C","559.0","K","","","","","","-","","-","","-","","-"
"O=C1OC(=O)C2CC(CCC12)C1=CC=CC=C1","-","-","-","4-trans-Phenylcyclohexane-(1R,2-cis)-dicarboxylic anhydride","105.0 - 106.0","?C","378.5","K","","","","","","-","","-","","-","","-"
"O=C1NC(=O)C2CC(CCC12)C1=CC=CC=C1","-","-","-","4-trans-Phenylcyclohexane-(1R,2-cis)-dicarboxylic imide","134.0 - 136.0","?C","408.0","K","","","","","","-","","-","","-","","-"
"CC(CC(=O)C1=CC=C(Cl)C=C1)C(O)=O","-","-","-","3-(p-Chlorobenzoyl)-2-methylpropionic acid","137.0 - 139.0","?C","411.0","K","","","","","","-","","-","","-","","-"
"OC(=O)CCCC(=O)C1=CC=C(Cl)C=C1","-","-","-","3-(p-Chlorobenzoyl)-butyric acid","140.0 - 142.0","?C","414.0","K","","","","","","-","","-","","-","","-"
"COC1=CC=C(C=C1)C(O)C(C)(C)C(O)=O","-","-","-","2,2-Dimethyl-3-hydroxy-3-(p-methoxyphenyl)propionic acid","115.0 - 117.0","?C","389.0","K","","","","","","-","","-","","-","","-"
"COC1=CC=C(C=C1)C(N)CCO","-","-","-","3-Amino-3-(p-methoxyphenyl)-1-propanol","82.0 - 86.0","?C","357.0","K","","","","","","-","","-","","-","","-"
"COC1=C(OC)C=C2C(CCO)NCCC2=C1","-","-","-","Homocalycotomine","103.0 - 107.0","?C","378.0","K","","","","","","-","","-","","-","","-"
"COC1=C(OC)C=C2C(CO)NCCC2=C1","-","-","-","Calycotomine","135.0 - 139.0","?C","410.0","K","","","","","","-","","-","","-","","-"
"CCOC1=C(OCC)C=C2C(=S)NCCC2=C1","-","-","-","6,7-Diethoxy-3,4-dihydroisoquinoline-1(2H)-thione","150.0 - 152.0","?C","424.0","K","","","","","","-","","-","","-","","-"
"CCOC(=O)N1CCC2=CC(OC)=C(OC)C=C2C1C#N","-","-","-","1-Cyano-2-ethoxycarbonyl-6,7-dimethoxy-1,2,3,4-tetrahydroisoquinoline","110.0 - 112.0","?C","384.0","K","","","","","","-","","-","","-","","-"
"COC1=C(OC)C=C2C(=C)N(CCC2=C1)C(C)=O","-","-","-","2-Acetyl-6,7-dimethoxy-1-methylene-1,2,3,4-tetrahydroisoquinoline","107.0 - 109.0","?C","381.0","K","","","","","","-","","-","","-","","-"
"O=C1NC2CCCC12","-","-","-","6-Azabicyclo[3.2.0]heptan-7-one","45.0 - 50.0","?C","320.5","K","","","","","","-","","-","","-","","-"
"O=C1NC2CCCCC12","-","-","-","7-Azabicyclo[4.2.0]octan-8-one","48.0 - 50.0","?C","322.0","K","","","","","","-","","-","","-","","-"
"CCC(CC)C(N)CC(O)=O","-","-","-","3-Amino-4-ethylhexanoic acid","213.0 - 214.0","?C","486.5","K","","","","","","-","","-","","-","","-"
"CC(C)CC(N)CC(O)=O","-","-","-","3-Amino-5-methylhexanoic acid","249.0 - 250.0","?C","522.5","K","","","","","","-","","-","","-","","-"
"NC(CCC1=CC=CC=C1)CC(O)=O","-","-","-","3-Amino-5-phenylpentanoic acid","223.0 - 227.0","?C","498.0","K","","","","","","-","","-","","-","","-"
"OC1=C(Br)C(Br)=C(O)C(Br)=C1Br","-","-","-","2,3,5,6-Tetrabromohydroquinone","255.0 - 260.0","?C","530.5","K","","","","","","-","","-","","-","","-"
"O=C1OC(=O)C2=C1SCCS2","-","-","-","5,6-Dihydro-1,4-dithiine-2,3-dicarboxylic anhydride","213.0 - 214.0","?C","486.5","K","","","","","","-","","-","","-","","-"
"CC1=NN=C(C(=O)N1N)C1=CC=CC=C1","-","-","-","4-Amino-3-methyl-6-phenyl-1,2,4-triazin-5-one","169.0","?C","442.0","K","","","","","","-","","-","","-","","-"
"O=C(OC1C(OC(=O)C2=CC=CC=C2)C(=O)OC1=O)C1=CC=CC=C1","-","-","-","(+)-Dibenzoyl-L-tartaric anhydride","174.0","?C","447.0","K","","","","","","-","","-","","-","","-"
"C#CCC1CCCC1","-","-","-","3-Cyclopentyl-1-propyne","132.0 - 134.0","?C","406.0","K","","","","","","-","","-","","-","","-"
"CCOC(=O)C1=CN(C2=CC=C(F)C=C2F)C2=NC(Cl)=C(F)C=C2C1=O","-","-","-","Ethyl 1-(2,4-difluorophenyl)-7-Cl-6-F-4-O-hydropyridino[2,3-b]pyridine-3-carboxylate","212.0 - 215.0","?C","486.5","K","","","","","","-","","-","","-","","-"
"OC(=O)C1=C(CSC2=CC=CC=C2)C=CC=C1","-","-","-","2-Phenylmercaptomethylbenzoic acid","109.0 - 113.0","?C","384.0","K","","","","","","-","","-","","-","","-"
"CC1=C(O)C=C(N)C=C1","-","-","-","5-Amino-o-cresol","160.0 - 165.0","?C","435.5","K","","","","","","-","","-","","-","","-"
"CSCCC(NC(=O)OC(C)(C)C)C(O)=O","-","-","-","Boc-D-methionine","47.0 - 50.0","?C","321.5","K","","","","","","-","","-","","-","","-"
"CCCC(NC(=O)OC(C)(C)C)C(O)=O","-","-","-","Boc-L-Norvaline","43.0 - 47.0","?C","318.0","K","","","","","","-","","-","","-","","-"
"CC(C)(C)OC(=O)N1CCCC1C(O)=O","-","-","-","Boc-D-Proline","133.0 - 135.0","?C","407.0","K","","","","","","-","","-","","-","","-"
"CC(C)C(NC(=O)OC(C)(C)C)C(O)=O","-","-","-","Boc-D-Valine","164.0 - 165.0","?C","437.5","K","","","","","","-","","-","","-","","-"
"CC(=O)NC1=CC=C(C=NNC(N)=S)C=C1","-","-","-","4-Acetylaminobenzaldehyde thiosemicarbazone","225.0 - 230.0","?C","500.5","K","","","","","","-","","-","","-","","-"
"CC(C)(C)C1=C(O)C=C(O)C(=C1)C(=O)C1=CC=CC=C1","-","-","-","2,4-Dihydroxy-5-tert-butylbenzophenone","144.0 - 148.0","?C","419.0","K","","","","","","-","","-","","-","","-"
"COC(=O)C(C)OC1=CC=C(O)C=C1","-","-","-","Methyl (R)-(+)-2-(4-hydroxyphenoxy)propanoate","64.0 - 67.0","?C","338.5","K","","","","","","-","","-","","-","","-"
"CC1OC(OC2=CC=C(C=C2)[N+]([O-])=O)C(O)C(O)C1O","-","-","-","4-Nitrophenyl-beta-D-fucopyranoside","191.0 - 192.0","?C","464.5","K","","","","","","-","","-","","-","","-"
"CC(=O)NC1C(O)C(O)C(CO)OC1OC1=CC=C2C(C)=CC(=O)OC2=C1","-","-","-","4-Methylumbelliferyl-N-acetyl-beta-D-glucosaminide","208.0 - 210.0","?C","482.0","K","","","","","","-","","-","","-","","-"
"CC(CO)=CCNC1=C2N=CN(C3OC(CO)C(O)C3O)C2=NC=N1","-","-","-","trans-Zeatin-riboside","179.0 - 180.0","?C","452.5","K","","","","","","-","","-","","-","","-"
"CC1=CC(=O)OC2=CC(OC3OC(CO)C(O)C(O)C3O)=CC=C12","-","-","-","4-Methylumbelliferyl-beta-D-galactopyranoside","248.0","?C","521.0","K","","","","","","-","","-","","-","","-"
"OCC1OC(SCCC2=CC=CC=C2)C(O)C(O)C1O","-","-","-","2-Phenylethyl-beta-D-thiogalactoside","100.0","?C","373.0","K","","","","","","-","","-","","-","","-"
"CC1=CC(=O)OC2=CC(OC3OCC(O)C(O)C3O)=CC=C12","-","-","-","4-Methylumbelliferyl-beta-D-xylopyranoside","223.0","?C","496.0","K","","","","","","-","","-","","-","","-"
"COC1=CC(N)=NC=N1","-","-","-","4-Amino-6-methoxypyrimidine","100.0","?C","373.0","K","","","","","","-","","-","","-","","-"
"CNC(OC)=C[N+]([O-])=O","-","-","-","1-Methoxy-1-methylamino-2-nitroethylene","116.0 - 120.0","?C","391.0","K","","","","","","-","","-","","-","","-"
"O=C1CCC(COC(C2=CC=CC=C2)(C2=CC=CC=C2)C2=CC=CC=C2)O1","-","-","-","(S)-(+)-gamma-(Trityloxymethyl)-gamma-butyrolactone","148.0 - 152.0","?C","423.0","K","","","","","","-","","-","","-","","-"
"OC(C1CCCN1)(C1=CC=CC=C1)C1=CC=CC=C1","-","-","-","(R)-(+)-alpha,alpha-Diphenyl-2-pyrrolidinemethanol","77.0 - 81.0","?C","352.0","K","","","","","","-","","-","","-","","-"
"CC(=O)OC(C1=CC=CC=C1)C(O)(C1=CC=CC=C1)C1=CC=CC=C1","-","-","-","(R)-(+)-2-Hydroxy-1,2,2-triphenylethyl acetate","248.0 - 252.0","?C","523.0","K","","","","","","-","","-","","-","","-"
"CC1NC(=O)OC1C1=CC=CC=C1","-","-","-","(4R,5S)-(+)-4-Methyl-5-phenyl-2-oxazolidinone","118.0 - 121.0","?C","392.5","K","","","","","","-","","-","","-","","-"
"CC1=CC=C(C=C1)S(=O)(=O)NC(C(NS(=O)(=O)C1=CC=C(C)C=C1)C1=CC=CC=C1)C1=CC=CC=C1","-","-","-","(1R,2R)-N,N'-Di-p-toluenesulfonyl-1,2-diphenyl-1,2-ethylenediamine","203.0 - 208.0","?C","478.5","K","","","","","","-","","-","","-","","-"
"CC=CC(=O)N1C(CC2=CC=CC=C2)COC1=O","-","-","-","(4S)-N-Crotonyl-4-benzyl-2-oxazolidinone","84.0 - 85.0","?C","357.5","K","","","","","","-","","-","","-","","-"
"CC(C)(C)[Si](C)(C)N1C(CC1=O)C(O)=O","-","-","-","(4R)-N-(tert-Butyldimethylsilyl)azetidin-2-one-4-carboxylic acid","137.0 - 141.0","?C","412.0","K","","","","","","-","","-","","-","","-"
"NC(CCCCP(O)(O)=O)C(O)=O","-","-","-","(R)-(-)-2-Amino-6-phosphonohexanoic acid hydrate","215.0 - 220.0","?C","490.5","K","","","","","","-","","-","","-","","-"