"SMILES","CASRN","EXTERNALID","N","NAME","Melting Point","UNIT {Melting Point}","Melting Point {measured, converted}","UNIT {Melting Point}","Dataset","comment (property)","comment (chemical)","measurement method","Pressure","UNIT {Pressure}","Som set numeric condition","UNIT {Som set numeric condition}","Resp set numeric condition","UNIT {Resp set numeric condition}","Quality code","UNIT {Quality code}"
"OC(=O)C1=NNC(=C1)C1=CC=CS1","-","-","-","5-Thien-2-yl-1H-pyrazole-3-carboxylic acid","229.0 - 232.0","?C","503.5","K","","","","","","-","","-","","-","","-"
"CCOC(=O)C1=C(Cl)C=C(C)C=C1N1CCCC1","-","-","-","Ethyl 2-chloro-4-methyl-6-tetrahydro-1H-pyrrol-1-ylbenzoate","78.0 - 79.0","?C","351.5","K","","","","","","-","","-","","-","","-"
"FC(F)(F)C1=CC2=C(NC(S)=N2)C=C1","-","-","-","5-(Trifluoromethyl)-1H-benzo[d]imidazole-2-thiol","277.0 - 279.0","?C","551.0","K","","","","","","-","","-","","-","","-"
"CC(=O)C1=NC(S)=C(C=C1)C#N","-","-","-","6-Acetyl-2-mercaptonicotinonitrile","210.0","?C","483.0","K","","","","","","-","","-","","-","","-"
"CC1=NC(=NO1)C1=CC(CBr)=CC=C1","-","-","-","3-[3-(Bromomethyl)phenyl]-5-methyl-1,2,4-oxadiazole","71.0 - 72.0","?C","344.5","K","","","","","","-","","-","","-","","-"
"CC1=NC(=CS1)C1=CC=C(C=C1)S(Cl)(=O)=O","-","-","-","4-(2-Methyl-1,3-thiazol-4-yl)benzenesulfonyl chloride","111.0 - 112.0","?C","384.5","K","","","","","","-","","-","","-","","-"
"O=CC1=CC=CC=C1C1=CC=CN=C1","-","-","-","2-Pyridin-3-ylbenzaldehyde","68.0 - 69.0","?C","341.5","K","","","","","","-","","-","","-","","-"
"NC(=S)C1COC2=CC=CC=C2O1","-","-","-","2,3-Dihydro-1,4-benzodioxine-2-carbothioamide","180.0 - 183.0","?C","454.5","K","","","","","","-","","-","","-","","-"
"COC1=CC=C(CCNC2=CC=CC=C2N)C=C1OC","-","-","-","N1-(3,4-Dimethoxyphenethyl)benzene-1,2-diamine","78.0 - 80.0","?C","352.0","K","","","","","","-","","-","","-","","-"
"CCCCCC1=CC=C(C=C1)C1=NN=C(S)N1","-","-","-","5-(4-Pentylphenyl)-4H-1,2,4-triazole-3-thiol","190.0 - 193.0","?C","464.5","K","","","","","","-","","-","","-","","-"
"CCC1N(O)C(C)(C)N=C1C=NC(C)(C)C","-","-","-","4-tert-Butyliminomethyl-2,2,5,5-tetramethyl-3-imidazoline-1-oxyl","103.0 - 105.0","?C","377.0","K","","","","","","-","","-","","-","","-"
"NCC1=CC=CC=C1N1C=CC=C1","-","-","-","[2-(1H-Pyrrol-1-yl)phenyl]methylamine","156.0 - 157.0","?C","429.5","K","","","","","","-","","-","","-","","-"
"[O-][N+](=O)C1=NNC=C1","-","-","-","5-nitro-1H-pyrazole","173.0 - 175.0","?C","447.0","K","","","","","","-","","-","","-","","-"
"OC1=C2CC(=O)CCC2=CC=C1","-","-","-","8-Hydroxy-3,4-dihydronaphthalen-2(1H)-one","156.0 - 157.0","?C","429.5","K","","","","","","-","","-","","-","","-"
"[O-][N+](=O)C1=CC=C(C=C1)C(=O)C1=CC=C(F)C=C1","-","-","-","(4-Fluorophenyl)(4-nitrophenyl)methanone","87.0 - 89.0","?C","361.0","K","","","","","","-","","-","","-","","-"
"CN1N=C(C(O)=O)C2=CC=CC=C12","-","-","-","1-Methyl-1H-indazole-3-carboxylic acid","213.0 - 221.0","?C","490.0","K","","","","","","-","","-","","-","","-"
"O=CC1=CC=CC=C1N1C=CC=N1","-","-","-","2-(1H-Pyrazol-1-yl)benzaldehyde","58.0","?C","331.0","K","","","","","","-","","-","","-","","-"
"OCC1=CN2C=CN=C2C=C1","-","-","-","Imidazo[1,2-a]pyridin-6-ylmethanol","106.0 - 108.0","?C","380.0","K","","","","","","-","","-","","-","","-"
"CC1=NC(=NO1)C1=CC=C(CO)C=C1","-","-","-","[4-(5-Methyl-1,2,4-oxadiazol-3-yl)phenyl]methanol","131.0 - 132.0","?C","404.5","K","","","","","","-","","-","","-","","-"
"CN1CCN(CC1)C1=C(N)C=CC=C1","-","-","-","2-(4-methylpiperazin-1-yl)aniline","101.0 - 102.0","?C","374.5","K","","","","","","-","","-","","-","","-"
"CC1=NC(=NO1)C1=CC(C=O)=CC=C1","-","-","-","3-(5-Methyl-1,2,4-oxadiazol-3-yl)benzaldehyde","98.0 - 99.0","?C","371.5","K","","","","","","-","","-","","-","","-"
"CC1=NC(=NO1)C1=CC(CO)=CC=C1","-","-","-","[3-(5-Methyl-1,2,4-oxadiazol-3-yl)phenyl]methanol","56.0 - 58.0","?C","330.0","K","","","","","","-","","-","","-","","-"
"OCC1=NNC(=C1)C1=CC=CS1","-","-","-","(5-Thien-2-yl-1H-pyrazol-3-yl)methanol","126.0 - 128.0","?C","400.0","K","","","","","","-","","-","","-","","-"
"CCOC(=O)C1=C2C=CC=CC2=NN1C","-","-","-","Ethyl 2-methyl-2H-indazole-3-carboxylate","50.0 - 52.0","?C","324.0","K","","","","","","-","","-","","-","","-"
"COC(=O)C(C#N)=C(SC)SC","-","-","-","Methyl 2-cyano-3,3-di(methylthio)acrylate","85.0 - 87.0","?C","359.0","K","","","","","","-","","-","","-","","-"
"[O-][N+](=O)C1=CC=CN=C1OC1=CC=C(Cl)C=C1","-","-","-","2-(4-Chlorophenoxy)-3-nitropyridine","89.0 - 90.0","?C","362.5","K","","","","","","-","","-","","-","","-"
"O1N=C2C=CC3=C(C=CN=N3)C2=N1","-","-","-","[1,2,5]Oxadiazolo[3,4-f]cinnoline","139.0 - 141.0","?C","413.0","K","","","","","","-","","-","","-","","-"
"CC1=CN=NC2=C1C1=NON=C1C=C2","-","-","-","9-Methyl[1,2,5]oxadiazolo[3,4-f]cinnoline","171.0 - 173.0","?C","445.0","K","","","","","","-","","-","","-","","-"
"CC1=C(CO)N2C=CC=CC2=N1","-","-","-","(2-Methylimidazo[1,2-a]pyridin-3-yl)methanol","157.0 - 158.0","?C","430.5","K","","","","","","-","","-","","-","","-"
"ClC1=CC=C(NC(=O)C2=C(Cl)N=CC=C2)C=C1","-","-","-","2-Chloro-N-(4-chlorophenyl)nicotinamide","148.0 - 149.0","?C","421.5","K","","","","","","-","","-","","-","","-"
"CC1=CC2=C(C=CC3=NON=C23)N=N1","-","-","-","8-Methyl[1,2,5]oxadiazolo[3,4-f]cinnoline","167.0 - 169.0","?C","441.0","K","","","","","","-","","-","","-","","-"
"O=C1OC2=CC=CC=C2N1CC1=CC=CC(=C1)C#N","-","-","-","3-[(2-Oxo-2,3-dihydro-1,3-benzoxazol-3-yl)methyl]benzonitrile","170.0 - 172.0","?C","444.0","K","","","","","","-","","-","","-","","-"
"CN1N=C(C(Cl)=O)C2=CC=CC=C12","-","-","-","1-Methyl-1H-indazole-3-carbonyl chloride","126.0","?C","399.0","K","","","","","","-","","-","","-","","-"
"CC1=C(C=O)N2C=CC=CC2=N1","-","-","-","2-Methylimidazo[1,2-a]pyridine-3-carbaldehyde","117.0 - 118.0","?C","390.5","K","","","","","","-","","-","","-","","-"
"CC1=C(Br)N2C=CC=CC2=N1","-","-","-","3-Bromo-2-methylimidazo[1,2-a]pyridine","73.0 - 74.0","?C","346.5","K","","","","","","-","","-","","-","","-"
"OC(=O)C1=CN2C=CN=C2C=C1","-","-","-","Imidazo[1,2-a]pyridine-6-carboxylic acid","250.0","?C","523.0","K","","","","","","-","","-","","-","","-"
"CCOC(=O)C1=NOC(=C1)C1=CC=CS1","-","-","-","Ethyl 5-(2-thienyl)isoxazole-3-carboxylate","48.0 - 51.0","?C","322.5","K","","","","","","-","","-","","-","","-"
"OC(=O)C1=NOC(=C1)C1=CC=CS1","-","-","-","5-(2-Thienyl)-3-isoxazolecarboxylic acid","168.0","?C","441.0","K","","","","","","-","","-","","-","","-"
"COC1=CC=C(Br)C(=C1)C(=O)CC#N","-","-","-","3-(2-Bromo-5-methoxyphenyl)-3-oxopropanenitrile","92.0 - 93.0","?C","365.5","K","","","","","","-","","-","","-","","-"
"OCC1=CC(=CC=C1)N1CCOCC1","-","-","-","(3-Morpholinophenyl)methanol","51.0 - 54.0","?C","325.5","K","","","","","","-","","-","","-","","-"
"CC1=NC(=NO1)C1=CC=C(CBr)C=C1","-","-","-","3-[4-(Bromomethyl)phenyl]-5-methyl-1,2,4-oxadiazole","103.0 - 104.0","?C","376.5","K","","","","","","-","","-","","-","","-"
"FC(F)(F)C1=CC=C(C=C1)C1=NC(C=O)=CS1","-","-","-","2-[4-(Trifluoromethyl)phenyl]-1,3-thiazole-4-carbaldehyde","103.0 - 105.0","?C","377.0","K","","","","","","-","","-","","-","","-"
"OCC1=CSC(=N1)C1=CC=C(C=C1)C(F)(F)F","-","-","-","{2-[4-(Trifluoromethyl)phenyl]-1,3-thiazol-4-yl}methanol","107.0","?C","380.0","K","","","","","","-","","-","","-","","-"
"CSC(SC)=C(C#N)C(=O)C1=CC=C(Cl)C=C1","-","-","-","2-(4-Chlorobenzoyl)-3,3-di(methylthio)acrylonitrile","82.0 - 84.0","?C","356.0","K","","","","","","-","","-","","-","","-"
"COC1=CC=C(C=C1)C(=O)C(C#N)=C(SC)SC","-","-","-","2-(4-Methoxybenzoyl)-3,3-di(methylthio)acrylonitrile","60.0 - 62.0","?C","334.0","K","","","","","","-","","-","","-","","-"
"CSC(SC)=C(C#N)C(=O)C1=CC(C)=CC=C1","-","-","-","2-(3-Methylbenzoyl)-3,3-di(methylthio)acrylonitrile","53.0 - 55.0","?C","327.0","K","","","","","","-","","-","","-","","-"
"FC(F)(F)C1=C(C=C(S1)C(Cl)=O)C1=CC=CC=C1","-","-","-","4-Phenyl-5-(trifluoromethyl)-2-thiophenecarbonyl chloride","48.0 - 51.0","?C","322.5","K","","","","","","-","","-","","-","","-"
"ClC1=C(Cl)N(CC#N)C=N1","-","-","-","2-(4,5-Dichloro-1H-imidazol-1-yl)acetonitrile","95.0 - 99.0","?C","370.0","K","","","","","","-","","-","","-","","-"
"O=C=NC1=CC=C(C=C1)C1=CC=CS1","-","-","-","2-(4-Isocyanatophenyl)thiophene","65.0 - 66.0","?C","338.5","K","","","","","","-","","-","","-","","-"
"CC1=C(SC(=N1)C1=CC=CC=C1)N=C=O","-","-","-","5-Isocyanato-4-methyl-2-phenyl-1,3-thiazole","82.0 - 83.0","?C","355.5","K","","","","","","-","","-","","-","","-"
"NC(=O)NCC1=CC=C(F)C=C1","-","-","-","N-(4-Fluorobenzyl)urea","172.0 - 175.0","?C","446.5","K","","","","","","-","","-","","-","","-"
"OC(=O)C1CN(CC2=CC=C(C=C2)C(F)(F)F)C(=O)C1","-","-","-","5-Oxo-1-[4-(trifluoromethyl)benzyl]pyrrolidine-3-carboxylic acid","127.5 - 129.5","?C","401.5","K","","","","","","-","","-","","-","","-"
"OC(=O)C1=C(Br)N=CC(Br)=C1","-","-","-","2,5-Dibromonicotinic acid","184.0 - 185.0","?C","457.5","K","","","","","","-","","-","","-","","-"
"COC1=NC(SC)=NC(N)=N1","-","-","-","4-Methoxy-6-(methylthio)-1,3,5-triazin-2-amine","200.0 - 202.0","?C","474.0","K","","","","","","-","","-","","-","","-"
"COC(=O)C1=CC=C(OC2=CC=CN=C2)O1","-","-","-","Methyl 5-(3-pyridinyloxy)-2-furoate","78.0 - 79.0","?C","351.5","K","","","","","","-","","-","","-","","-"
"OC(=O)C1=CC=C(OC2=CC=CN=C2)O1","-","-","-","5-(3-Pyridinyloxy)-2-furoic acid","150.0 - 153.0","?C","424.5","K","","","","","","-","","-","","-","","-"
"CN1C=NC(C=O)=C1","-","-","-","1-Methyl-1H-imidazole-4-carbaldehyde","68.0 - 69.0","?C","341.5","K","","","","","","-","","-","","-","","-"
"COC1=CC=C(C=C1)C1=NC(N)=NC(=C1)C(F)(F)F","-","-","-","4-(4-Methoxyphenyl)-6-(trifluoromethyl)pyrimidin-2-amine","191.0 - 194.0","?C","465.5","K","","","","","","-","","-","","-","","-"
"CC1=NC(=NO1)C1=CC(=CC=C1)N=C=O","-","-","-","3-(3-Isocyanatophenyl)-5-methyl-1,2,4-oxadiazole","72.0 - 74.0","?C","346.0","K","","","","","","-","","-","","-","","-"
"CN1N=C(CCl)C=C1C1=CC=CS1","-","-","-","3-(Chloromethyl)-1-methyl-5-thien-2-yl-1H-pyrazole","41.0 - 42.0","?C","314.5","K","","","","","","-","","-","","-","","-"
"IC1=CC=CC=C1CN1CCOCC1","-","-","-","4-(2-Iodobenzyl)morpholine","46.0 - 48.0","?C","320.0","K","","","","","","-","","-","","-","","-"
"BrCC(=O)C1=CC=C(C=C1)C1=CSC=C1","-","-","-","2-Bromo-1-(4-thien-3-ylphenyl)ethanone","113.0 - 115.0","?C","387.0","K","","","","","","-","","-","","-","","-"
"OC(=O)C1=CC(=NC=C1)N1CCCC1","-","-","-","2-Pyrrolidin-1-ylisonicotinic acid1.5 hydrate","211.0 - 212.0","?C","484.5","K","","","","","","-","","-","","-","","-"
"CC(Br)C(=O)NC1=C(C)C=CC=C1C","-","-","-","N1-(2,6-Dimethylphenyl)-2-bromopropanamide","163.0 - 165.0","?C","437.0","K","","","","","","-","","-","","-","","-"
"NCC1=CN2C=CN=C2C=C1","-","-","-","Imidazo[1,2-a]pyridin-6-ylmethylamine","97.0 - 99.0","?C","371.0","K","","","","","","-","","-","","-","","-"
"CC1=NC(=NO1)C1=CC=C(N)C=C1","-","-","-","4-(5-Methyl-1,2,4-oxadiazol-3-yl)aniline","113.0 - 114.0","?C","386.5","K","","","","","","-","","-","","-","","-"
"CN1CCN(CC1)C1=CC(N)=CC=C1","-","-","-","3-(4-Methylpiperazin-1-yl)aniline","98.0 - 99.0","?C","371.5","K","","","","","","-","","-","","-","","-"
"CN1CCN(CC1)C1=CC(=CC=C1)[N+]([O-])=O","-","-","-","1-Methyl-4-(3-nitrophenyl)piperazine","60.0 - 62.0","?C","334.0","K","","","","","","-","","-","","-","","-"
"N#CC1=CC=C(OC2=CC=CC=C2)C=C1","-","-","-","4-Phenoxybenzonitrile","45.0 - 48.0","?C","319.5","K","","","","","","-","","-","","-","","-"
"OC(=O)C1=CC=C(CN2CCCC2)C=C1","-","-","-","4-(Pyrrolidin-1-ylmethyl)benzoic acid","184.0 - 185.0","?C","457.5","K","","","","","","-","","-","","-","","-"
"OC1CS(=O)(=O)CC1Br","-","-","-","3-Bromo-4-hydroxytetrahydro-1H-1lambda6-thiophene-1,1-dione","190.0 - 192.0","?C","464.0","K","","","","","","-","","-","","-","","-"
"CC(C)(C)OC(=O)N1CCN(C(C1)C(O)=O)C(=O)OCC1C2=C(C=CC=C2)C2=C1C=CC=C2","-","-","-","4-(tert-Butoxycarbonyl)-1-[(9H-fluoren-9-ylmethoxy)carbonyl]-2-piperazinecarboxylic acid","163.0 - 166.0","?C","437.5","K","","","","","","-","","-","","-","","-"
"ClC1=CC=C(OCCC#N)C=C1","-","-","-","3-(4-Chlorophenoxy)propanenitrile","45.0 - 47.0","?C","319.0","K","","","","","","-","","-","","-","","-"
"CC(C)(C)OC(=O)NC(CC1=CC=CC=C1)C=O","-","-","-","N-Boc-D-Phenylalaninal","85.0 - 89.0","?C","360.0","K","","","","","","-","","-","","-","","-"
"CCCCCCCCCCS(Cl)(=O)=O","-","-","-","1-Decanesulfonyl chloride","34.0","?C","307.0","K","","","","","","-","","-","","-","","-"
"CC1=NC2=CC=CC=C2N1CC(O)=O","-","-","-","(2-Methyl-1H-benzimidazol-1-yl)acetic acid","260.0 - 262.0","?C","534.0","K","","","","","","-","","-","","-","","-"
"OC(=O)CN1C(CN2CCOCC2)=NC2=CC=CC=C12","-","-","-","[2-(Morpholin-4-ylmethyl)-1H-benzimidazol-1-yl]acetic acid","214.0 - 218.0","?C","489.0","K","","","","","","-","","-","","-","","-"
"OC(=O)CCNC(=O)CCl","-","-","-","3-[(2-Chloroacetyl)amino]propanoic acid","91.0 - 92.0","?C","364.5","K","","","","","","-","","-","","-","","-"
"BrC1=CC=C2NC(=O)CC2=C1","-","-","-","5-Bromo-1,3-dihydro-2H-indol-2-one","219.0 - 221.0","?C","493.0","K","","","","","","-","","-","","-","","-"
"O=CC1=CC=C(S1)C1=CC=CO1","-","-","-","5-(2-Furyl)thiophene-2-carbaldehyde","40.0 - 41.0","?C","313.5","K","","","","","","-","","-","","-","","-"
"CC1=NOC(=N1)C1=CC=CC=C1Br","-","-","-","5-(2-Bromophenyl)-3-methyl-1,2,4-oxadiazole","43.0 - 44.0","?C","316.5","K","","","","","","-","","-","","-","","-"
"NC1=C(F)C=C(Br)C=C1F","-","-","-","4-Bromo-2,6-difluoroaniline","67.0 - 68.0","?C","340.5","K","","","","","","-","","-","","-","","-"
"BrC1=NN(CC2=CC=CC=C2)C(Br)=N1","-","-","-","1-Benzyl-3,5-dibromo-1H-1,2,4-triazole","60.0 - 65.0","?C","335.5","K","","","","","","-","","-","","-","","-"
"CCOC1=CC=C(C=C1)N=NC1=CC=C(N)C=C1N","-","-","-","4-(4-Ethoxyphenylazo)-m-phenylenediaminemixture of mono and dihydrochloride","215.0","?C","488.0","K","","","","","","-","","-","","-","","-"
"BrCC1=CC(=CC=C1)C1=CSC=C1","-","-","-","3-[3-(Bromomethyl)phenyl]thiophene","70.0","?C","343.0","K","","","","","","-","","-","","-","","-"
"OC(=O)C1=CC(=CN=C1)C1=CC=CO1","-","-","-","5-(2-Furyl)nicotinic acid","261.0 - 263.0","?C","535.0","K","","","","","","-","","-","","-","","-"
"O=CC1=C(CN2CCOCC2)C=CC=C1","-","-","-","2-(Morpholinomethyl)benzaldehyde","67.0 - 68.0","?C","340.5","K","","","","","","-","","-","","-","","-"
"BrCC(=O)C1=CC=C(OC2=CC=CC=C2)C=C1","-","-","-","2-Bromo-1-(4-phenoxyphenyl)ethanone","49.0 - 50.0","?C","322.5","K","","","","","","-","","-","","-","","-"
"CCC1=CC=C(O)C(C(C)=O)=C1O","-","-","-","1-(3-Ethyl-2,6-dihydroxyphenyl)ethan-1-one","129.5 - 131.0","?C","403.2","K","","","","","","-","","-","","-","","-"
"CC(C)(C)OC(=O)NCC1=NC=CC=C1F","-","-","-","tert-Butyl (3-fluoropyrid-2-yl)methylcarbamate","56.0 - 58.0","?C","330.0","K","","","","","","-","","-","","-","","-"
"N#CC1=NC(=CC=C1)N1CCOCC1","-","-","-","6-Morpholin-4-ylpyridine-2-carbonitrile","133.0 - 135.0","?C","407.0","K","","","","","","-","","-","","-","","-"
"CC1=NC(=NO1)C1=CC(N)=CC=C1","-","-","-","3-(5-Methyl-1,2,4-oxadiazol-3-yl)aniline","95.0 - 96.0","?C","368.5","K","","","","","","-","","-","","-","","-"
"N#CC1=CC=CC(=C1)C1=CC=CS1","-","-","-","3-Thien-2-ylbenzonitrile","58.0 - 60.0","?C","332.0","K","","","","","","-","","-","","-","","-"
"CN1N=C(C=C1CO)C1=CC=CO1","-","-","-","[3-(2-Furyl)-1-methyl-1H-pyrazol-5-yl]methanol","83.0 - 85.0","?C","357.0","K","","","","","","-","","-","","-","","-"
"OCC1=CC=C(S1)C1=CC=CO1","-","-","-","[5-(2-Furyl)thien-2-yl]methanol","56.0 - 57.0","?C","329.5","K","","","","","","-","","-","","-","","-"
"OCC1=C(CN2CCOCC2)C=CC=C1","-","-","-","[2-(Morpholinomethyl)phenyl]methanol","59.0","?C","332.0","K","","","","","","-","","-","","-","","-"
"NC1=CC=C(CN2C=CC=N2)C=C1","-","-","-","4-(1H-Pyrazol-1-ylmethyl)aniline","67.0 - 69.0","?C","341.0","K","","","","","","-","","-","","-","","-"
"OC(=O)C1=CC=CC(CN2C=CC=N2)=C1","-","-","-","3-(1H-Pyrazol-1-ylmethyl)benzoic acid","151.0 - 152.0","?C","424.5","K","","","","","","-","","-","","-","","-"
"CC1=NC2=CC=CC=C2N1CCCC(O)=O","-","-","-","4-(2-Methyl-1H-benzimidazol-1-yl)butanoic acid","234.0 - 238.0","?C","509.0","K","","","","","","-","","-","","-","","-"
"ClC1=C(CS(Cl)(=O)=O)C=CC=C1","-","-","-","(2-Chlorophenyl)methanesulfonyl chloride","60.0 - 62.0","?C","334.0","K","","","","","","-","","-","","-","","-"
"ClC1=NC(=CC=N1)C1=CC=CS1","-","-","-","2-Chloro-4-thien-2-ylpyrimidine","127.0 - 129.0","?C","401.0","K","","","","","","-","","-","","-","","-"
"CN(C)CCOC1=CC=CC=C1N","-","-","-","2-[2-(Dimethylamino)ethoxy]aniline","37.0 - 40.0","?C","311.5","K","","","","","","-","","-","","-","","-"
"O=CC1=CC=C(CN2C=CC=N2)C=C1","-","-","-","4-(1H-Pyrazol-1-ylmethyl)benzaldehyde","57.0 - 59.0","?C","331.0","K","","","","","","-","","-","","-","","-"
"ClS(=O)(=O)C1=C(C=CO1)C1OCCO1","-","-","-","3-(1,3-Dioxolan-2-yl)furan-2-sulfonyl chloride","34.0 - 39.0","?C","309.5","K","","","","","","-","","-","","-","","-"
"N#CC1=NC=CC=C1N1CCCCC1","-","-","-","3-Piperidin-1-ylpyridine-2-carbonitrile","67.0 - 69.0","?C","341.0","K","","","","","","-","","-","","-","","-"
"NCC1=CC(=CC=C1)C1=CSC=C1","-","-","-","(3-Thien-3-ylphenyl)methylamine","80.0","?C","353.0","K","","","","","","-","","-","","-","","-"
"CN1N=CC(C=O)=C1N","-","-","-","5-Amino-1-methyl-1H-pyrazole-4-carbaldehyde","161.0 - 163.0","?C","435.0","K","","","","","","-","","-","","-","","-"
"CC(C)C1=CC(C(C)C)=C(C(=C1)C(C)C)C1=C(C=CC=C1)P(C1CCCCC1)C1CCCCC1","-","-","-","2-(Dicyclohexylphosphino)-2',4',6'-triisopropylbiphenyl","185.0","?C","458.0","K","","","","","","-","","-","","-","","-"
"CC1=NC(=C(S1)C(O)=O)C1=CC=CC=C1","-","-","-","2-Methyl-4-phenyl-1,3-thiazole-5-carboxylic acid","201.0 - 203.0","?C","475.0","K","","","","","","-","","-","","-","","-"
"CCOC(=O)C1=C(N=C(C)S1)C1=CC=CC=C1","-","-","-","Ethyl 2-methyl-4-phenyl-1,3-thiazole-5-carboxylate","44.0 - 47.0","?C","318.5","K","","","","","","-","","-","","-","","-"
"CN1C=CC(=N1)S(Cl)(=O)=O","-","-","-","1-Methyl-1H-pyrazole-3-sulfonyl chloride","36.0 - 39.0","?C","310.5","K","","","","","","-","","-","","-","","-"
"NC1=C(C=CC=C1)N1C=CN=C1","-","-","-","2-(1H-Imidazol-1-yl)aniline","106.0 - 107.0","?C","379.5","K","","","","","","-","","-","","-","","-"
"CN1C=CC2=C1C=C(C=O)C=C2","-","-","-","1-Methyl-1H-indole-6-carbaldehyde","81.0","?C","354.0","K","","","","","","-","","-","","-","","-"
"CN1C=CC2=C1C=CC=C2C=O","-","-","-","1-Methyl-1H-indole-4-carbaldehyde","27.0 - 29.0","?C","301.0","K","","","","","","-","","-","","-","","-"
"CN1C=CC2=C1C=CC=C2CO","-","-","-","(1-Methyl-1H-indol-4-yl)methanol","69.0 - 71.0","?C","343.0","K","","","","","","-","","-","","-","","-"
"BrC1=CC2=C(NC=N2)C=C1","-","-","-","5-Bromo-1H-benzimidazole","130.0 - 131.0","?C","403.5","K","","","","","","-","","-","","-","","-"
"CN(C)CCOC1=CC=C(N)C=C1","-","-","-","N-[2-(4-Aminophenoxy)ethyl]-N,N-dimethylamine","55.0 - 57.0","?C","329.0","K","","","","","","-","","-","","-","","-"
"CC1=NC2=C(S1)C=C(N)C=C2","-","-","-","2-Methyl-1,3-benzothiazol-6-ylamine","122.0 - 124.0","?C","396.0","K","","","","","","-","","-","","-","","-"
"NC1=CC(CN2CCCC2)=CC=C1","-","-","-","3-(Pyrrolidin-1-ylmethyl)aniline","72.0 - 74.0","?C","346.0","K","","","","","","-","","-","","-","","-"
"N#CC1=C(COC2=CC=CC=C2)C=CC=C1","-","-","-","2-(Phenoxymethyl)benzonitrile","62.0 - 64.0","?C","336.0","K","","","","","","-","","-","","-","","-"
"CN1CCCN(CC1)C1=CC=C(C=C1)C#N","-","-","-","4-(4-Methylperhydro-1,4-diazepin-1-yl)benzonitrile","93.0 - 94.0","?C","366.5","K","","","","","","-","","-","","-","","-"
"NC(C1CCC1)(C(O)=O)C1=CC=CC=C1","-","-","-","2-Amino-2-cyclobutyl-2-phenylacetic acid","255.5 - 258.0","?C","529.8","K","","","","","","-","","-","","-","","-"
"OCC1=CC(O)=C(I)C=C1","-","-","-","5-(Hydroxymethyl)-2-iodophenol","148.0","?C","421.0","K","","","","","","-","","-","","-","","-"
"COC(=O)C1=CN=C(SC)N=C1","-","-","-","Methyl 2-(methylthio)pyrimidine-5-carboxylate","96.0 - 97.0","?C","369.5","K","","","","","","-","","-","","-","","-"