"SMILES","CASRN","EXTERNALID","N","NAME","Melting Point","UNIT {Melting Point}","Melting Point {measured, converted}","UNIT {Melting Point}","Dataset","comment (property)","comment (chemical)","measurement method","Pressure","UNIT {Pressure}","Som set numeric condition","UNIT {Som set numeric condition}","Resp set numeric condition","UNIT {Resp set numeric condition}","Quality code","UNIT {Quality code}"
"NNC(=O)CSC1CS(=O)(=O)C2=C1C=CC(=C2)[N+]([O-])=O","-","-","-","2-[(6-Nitro-1,1-dioxo-2,3-dihydro-1H-1-benzothiophen-3-yl)sulfanyl]acetohydrazide","181.0 - 182.0","?C","454.5","K","","","","","","-","","-","","-","","-"
"CC1=CS(=O)(=O)C2=C1C=C(Cl)C=C2","-","-","-","5-Chloro-3-methyl-1H-1lambda6-benzo[b]thiophene-1,1-dione","168.0 - 172.0","?C","443.0","K","","","","","","-","","-","","-","","-"
"COC(=O)C1=CC=C(O1)C#CC1=CC=CC=C1","-","-","-","Methyl 5-(2-phenyleth-1-ynyl)-2-furoate","79.0 - 82.0","?C","353.5","K","","","","","","-","","-","","-","","-"
"NC(=O)CCSCCC(N)=O","-","-","-","3-[(3-amino-3-oxopropyl)thio]propanamide","183.0 - 186.0","?C","457.5","K","","","","","","-","","-","","-","","-"
"CCOC(=O)C1=C(N)C(=C(SC)S1)S(C)(=O)=O","-","-","-","Ethyl 3-amino-4-(methylsulfonyl)-5-(methylthio)thiophene-2-carboxylate","111.0 - 113.0","?C","385.0","K","","","","","","-","","-","","-","","-"
"FC(F)(F)C1=CC(=NN1)C1=CC2=C(OCO2)C=C1","-","-","-","3-(1,3-Benzodioxol-5-yl)-5-(trifluoromethyl)-1H-pyrazole","177.0 - 179.0","?C","451.0","K","","","","","","-","","-","","-","","-"
"NNC(=O)CSC1=CC=NC2=CC(Cl)=CC=C12","-","-","-","2-[7-Chloroquinolin-4-yl)thio]acetohydrazide","213.0 - 216.0","?C","487.5","K","","","","","","-","","-","","-","","-"
"ClC(=O)C1=CSC(=N1)C1=CC=CC(Cl)=C1","-","-","-","2-(3-Chlorophenyl)-1,3-thiazole-4-carbonyl chloride","85.0 - 87.0","?C","359.0","K","","","","","","-","","-","","-","","-"
"S=C1NCCC2=CC=CC=C12","-","-","-","1,2,3,4-Tetrahydroisoquinoline-1-thione","97.0 - 99.0","?C","371.0","K","","","","","","-","","-","","-","","-"
"SC1=NC(=CC=N1)C1=CC=CO1","-","-","-","4-(2-Furyl)-2-pyrimidinethiol","200.0","?C","473.0","K","","","","","","-","","-","","-","","-"
"CC1=CC=C(OC2=C(C#N)C(F)=CC=C2)C=C1","-","-","-","2-Fluoro-6-(4-methylphenoxy)benzonitrile","93.0 - 95.0","?C","367.0","K","","","","","","-","","-","","-","","-"
"[O-][N+](=O)C1=CC(C=O)=CC=C1SC1CCCCC1","-","-","-","4-(cyclohexylthio)-3-nitrobenzaldehyde","94.0 - 96.0","?C","368.0","K","","","","","","-","","-","","-","","-"
"CC1=CC=C2C(O)=C(C(=O)NC2=C1)C1=CC=CC=C1","-","-","-","4-Hydroxy-7-methyl-3-phenyl-1,2-dihydroquinolin-2-one","300.0","?C","573.0","K","","","","","","-","","-","","-","","-"
"C1C2CC3CC1CC(C2)(C3)C1=CC=CC=C1","-","-","-","1-PHENYLADAMANTANE","84.0 - 85.0","?C","357.5","K","","","","","","-","","-","","-","","-"
"OC(=O)CC(CC(O)=O)C1=CC=C(C=C1)C(F)(F)F","-","-","-","3-[4-(Trifluoromethyl)phenyl]pentanedioic acid","166.0 - 168.0","?C","440.0","K","","","","","","-","","-","","-","","-"
"OC(=O)C1C(N(CC2=CC=C(F)C=C2)C(=O)C2=C1C=CC=C2)C1=CN=CC=C1","-","-","-","2-(4-fluorobenzyl)-1-oxo-3-pyridin-3-yl-1,2,3,4-tetrahydroisoquinoline-4-carboxylic","250.0","?C","523.0","K","","","","","","-","","-","","-","","-"
"CC1=CC2=NSN=C2C=C1C","-","-","-","5,6-dimethyl-2,1,3-benzothiadiazole","89.0 - 90.0","?C","362.5","K","","","","","","-","","-","","-","","-"
"CCOC1=C(NN(C)C)C(=O)C1=O","-","-","-","3-(2,2-Dimethylhydrazino)-4-ethoxycyclobut-3-ene-1,2-dione","130.0 - 132.0","?C","404.0","K","","","","","","-","","-","","-","","-"
"[O-][N+](=O)C1=C(C=CC(C=O)=C1)N1CCCC1","-","-","-","3-Nitro-4-pyrrolidin-1-yl-benzaldehyde","103.0 - 105.0","?C","377.0","K","","","","","","-","","-","","-","","-"
"COCCOC1=CC=C(CCC(O)=O)C=C1N","-","-","-","3-[3-Amino-4-(2-methoxyethoxy)phenyl]propanoic acid","93.5 - 98.0","?C","368.8","K","","","","","","-","","-","","-","","-"
"CCOC(=O)C1=C(N)C2=C(C)C=C(C)N=C2S1","-","-","-","Ethyl 3-amino-4,6-dimethylthieno[2,3-b]pyridine-2-carboxylate","157.0 - 158.5","?C","430.8","K","","","","","","-","","-","","-","","-"
"CC(=O)C1=C(N)C2=C(S1)N=C(C=C2C(F)(F)F)C1=CC=CS1","-","-","-","1-[3-Amino-6-(2-thienyl)-4-(trifluoromethyl)thieno[2,3-b]pyridin-2-yl]ethan-1-one","171.0 - 172.0","?C","444.5","K","","","","","","-","","-","","-","","-"
"CN(C)C1=NC(=CC(=C1C#N)C(F)(F)F)C1=CC=CS1","-","-","-","2-(Dimethylamino)-6-(2-thienyl)-4-(trifluoromethyl)nicotinonitrile","118.0 - 119.0","?C","391.5","K","","","","","","-","","-","","-","","-"
"CSC1=NC(N)=NC(=N1)C1CC1","-","-","-","4-Cyclopropyl-6-(methylthio)-1,3,5-triazin-2-amine","157.0 - 159.0","?C","431.0","K","","","","","","-","","-","","-","","-"
"CSC1=NC(N)=NC(=N1)N1CCCCC1","-","-","-","4-(Methylthio)-6-piperidino-1,3,5-triazin-2-amine","156.0 - 158.0","?C","430.0","K","","","","","","-","","-","","-","","-"
"NC(=O)C1=CNCCC1C(F)(F)F","-","-","-","4-(Trifluoromethyl)-1,4,5,6-tetrahydropyridine-3-carboxamide","184.0 - 187.0","?C","458.5","K","","","","","","-","","-","","-","","-"
"OC(=O)C1C2=C(OC3=C1C=CC=C3)C=CC=C2","-","-","-","9H-Xanthene-9-carboxylic acid","217.0","?C","490.0","K","","","","","","-","","-","","-","","-"
"OC1=NN=C(O1)C1C2=CC=CC=C2OC2=C1C=CC=C2","-","-","-","5-(9H-Xanthen-9-yl)-1,3,4-oxadiazol-2-ol","335.0 - 337.0","?C","609.0","K","","","","","","-","","-","","-","","-"
"CCOC(=O)C1=C(C)NC2=CC=CC=C2S1","-","-","-","ethyl 3-methyl-4H-1,4-benzothiazine-2-carboxylate","143.0","?C","416.0","K","","","","","","-","","-","","-","","-"
"CCOC(=O)C1=C(N)N(N=C1)C1=CC=C(C=C1)[N+]([O-])=O","-","-","-","Ethyl 5-amino-1-(4-nitrophenyl)-1H-pyrazole-4-carboxylate","203.0 - 204.0","?C","476.5","K","","","","","","-","","-","","-","","-"
"CC1=C2CCCC2=C(OCC(=O)NN)C=C1","-","-","-","2-[(7-Methyl-2,3-dihydro-1H-inden-4-yl)oxy]acetohydrazide","145.0 - 156.0","?C","423.5","K","","","","","","-","","-","","-","","-"
"OCC1=CN(CC2=CC=CC=C2)C2=CC=C(C=C12)[N+]([O-])=O","-","-","-","(1-Benzyl-5-nitro-1H-3-indolyl)methanol","104.5 - 106.5","?C","378.5","K","","","","","","-","","-","","-","","-"
"NC1=NN=C(SCC(=O)NC2=CC3=C(OCO3)C=C2)S1","-","-","-","2-[(5-Amino-1,3,4-thiadiazol-2-yl)thio]-N-(1,3-benzodioxol-5-yl)acetamide","196.0 - 198.0","?C","470.0","K","","","","","","-","","-","","-","","-"
"COC1=CC=CC=C1N1CCN(CC(C)N(C(=O)C2CCCCC2)C2=NC=CC=C2)CC1","-","-","-","N-{2-[4-(2-Methoxyphenyl)piperazino]-1-methylethyl}-N-pyridin-2-ylcyclohexanecarboxamide","90.0 - 91.0","?C","363.5","K","","","","","","-","","-","","-","","-"
"CC1=CC(Br)=C(OCC(=O)NN)C2=C1CCC2","-","-","-","2-[(5-Bromo-7-methyl-2,3-dihydro-1H-inden-4-yl)oxy]acetohydrazide","69.0 - 70.0","?C","342.5","K","","","","","","-","","-","","-","","-"
"COC1=CC=CC2=C1OC(=O)C(=C2)C(O)=O","-","-","-","8-Methoxy-2-oxo-2H-chromene-3-carboxylic acid","214.0 - 216.0","?C","488.0","K","","","","","","-","","-","","-","","-"
"CC1=CN=NC2=C1C1=NON=C1CC2","-","-","-","9-Methyl-4,5-dihydro[1,2,5]oxadiazolo[3,4-f]cinnoline","155.0 - 158.0","?C","429.5","K","","","","","","-","","-","","-","","-"
"O1N=C2C=CC3=C(C=C(N=N3)C3=CC=CC=C3)C2=N1","-","-","-","8-Phenyl[1,2,5]oxadiazolo[3,4-f]cinnoline","201.0 - 203.0","?C","475.0","K","","","","","","-","","-","","-","","-"
"CCCCCSC1=NN=CN1","-","-","-","3-(pentylthio)-4H-1,2,4-triazole","47.0 - 48.0","?C","320.5","K","","","","","","-","","-","","-","","-"
"OC1CC(NC2(CCCC2)C1)C1=CC=CC=C1","-","-","-","7-Phenyl-6-azaspiro[4.5]decan-9-ol","240.0 - 243.0","?C","514.5","K","","","","","","-","","-","","-","","-"
"COCC1=CC(=O)OC2=CC(O)=C(Cl)C=C12","-","-","-","6-Chloro-7-hydroxy-4-(methoxymethyl)-2H-chromen-2-one","196.5 - 198.0","?C","470.2","K","","","","","","-","","-","","-","","-"
"COC1=CC=C(NC(=O)\C=C\C(O)=O)C=C1","-","-","-","4-(4-methoxyanilino)-4-oxobut-2-enoic acid","190.0 - 193.0","?C","464.5","K","","","","","","-","","-","","-","","-"
"CC1=CC=C(C=C[N+]([O-])=O)C=C1","-","-","-","1-methyl-4-(2-nitrovinyl)benzene","96.0 - 99.0","?C","370.5","K","","","","","","-","","-","","-","","-"
"OC(=O)C=CC(=O)NC1=CC(=CC=C1)C(F)(F)F","-","-","-","4-Oxo-4-[3-(trifluoromethyl)anilino]but-2-enoic acid","161.0 - 164.0","?C","435.5","K","","","","","","-","","-","","-","","-"
"CC1=CC(NC(=O)C=CC(O)=O)=NO1","-","-","-","4-[(5-Methylisoxazol-3-yl)amino]-4-oxobut-2-enoic acid","165.0 - 172.0","?C","441.5","K","","","","","","-","","-","","-","","-"
"OC(=O)CSCSCC(O)=O","-","-","-","2-({[(carboxymethyl)thio]methyl}thio)acetic acid","125.0 - 128.0","?C","399.5","K","","","","","","-","","-","","-","","-"
"OC(=O)CCSCSCCC(O)=O","-","-","-","3-({[(2-carboxyethyl)thio]methyl}thio)propanoic acid","138.0 - 140.0","?C","412.0","K","","","","","","-","","-","","-","","-"
"OC(=O)CS(=O)(=O)C=CC1=CC=CC=C1","-","-","-","2-(Styrylsulfonyl)acetic acid","151.0 - 154.0","?C","425.5","K","","","","","","-","","-","","-","","-"
"COC1=CC=CC(C=C[N+]([O-])=O)=C1","-","-","-","1-Methoxy-3-(2-nitrovinyl)benzene","91.0 - 93.0","?C","365.0","K","","","","","","-","","-","","-","","-"
"COC1=CC(C=C(C)[N+]([O-])=O)=CC=C1","-","-","-","1-Methoxy-3-(2-nitroprop-1-enyl)benzene","45.0 - 47.0","?C","319.0","K","","","","","","-","","-","","-","","-"
"FC(F)(F)C1=CC=C(C=C1)C1=NN=C(S)O1","-","-","-","5-[4-(Trifluoromethyl)phenyl]-1,3,4-oxadiazole-2-thiol","155.0 - 156.0","?C","428.5","K","","","","","","-","","-","","-","","-"
"C1=CN=C(C=C1)C1=NC(C2=CC=CC=N2)=C(N=N1)C1=CC=CC=N1","-","-","-","3,5,6-Tri(2-pyridyl)-1,2,4-triazine","186.0 - 188.0","?C","460.0","K","","","","","","-","","-","","-","","-"
"CC1(C)CC2=C(C3CCCCC3O2)C(=O)C1","-","-","-","3,3-Dimethyl-1,2,3,4,5a,6,7,8,9,9a-decahydrodibenzo[b,d]furan-1-one","63.0 - 66.0","?C","337.5","K","","","","","","-","","-","","-","","-"
"C1CN=C(C2=CC=CC=C2)C(=N1)C1=CC=CC=C1","-","-","-","5,6-Diphenyl-2,3-dihydropyrazine","160.0 - 163.0","?C","434.5","K","","","","","","-","","-","","-","","-"
"COC1=CC=CC(C=C[N+]([O-])=O)=C1OC","-","-","-","1,2-dimethoxy-3-(2-nitrovinyl)benzene","83.0 - 85.0","?C","357.0","K","","","","","","-","","-","","-","","-"
"CC(C)C1=CC=C(C=C[N+]([O-])=O)C=C1","-","-","-","1-Isopropyl-4-(2-nitrovinyl)benzene","35.0 - 38.0","?C","309.5","K","","","","","","-","","-","","-","","-"
"[O-]C(=O)CC(C([O-])=O)C(=C)C([O-])=O","-","-","-","3-(carboxymethyl)-2-methylenepentanedioic acid","177.0 - 181.0","?C","452.0","K","","","","","","-","","-","","-","","-"
"CC1=NN(C(=O)C1)C1=CC(Cl)=CC=C1","-","-","-","1-(3-chlorophenyl)-3-methyl-4,5-dihydro-1H-pyrazol-5-one","125.0 - 128.0","?C","399.5","K","","","","","","-","","-","","-","","-"
"CCOC(=O)O\N=C(/C(=O)C1=CC=CC=C1)C1=CC=CC=C1","-","-","-","2-{[(ethoxycarbonyl)oxy]imino}-1,2-diphenylethan-1-one","73.0 - 75.0","?C","347.0","K","","","","","","-","","-","","-","","-"
"CC1=CC=C(SC2=CC=C(C=C2)C(=O)C2=CC=CC=C2)C=C1","-","-","-","{4-[(4-Methylphenyl)thio]phenyl}(phenyl)methanone","73.0 - 87.0","?C","353.0","K","","","","","","-","","-","","-","","-"
"CN1C(N)=CC(=O)N(C)C1=O","-","-","-","6-Amino-1,3-dimethyl-1,2,3,4-tetrahydropyrimidine-2,4-dione","295.0","?C","568.0","K","","","","","","-","","-","","-","","-"
"CC12CCC3C(CCC4=CC(=O)CCC34C)C1CCC2=O","-","-","-","10,13-Dimethyl-2,3,6,7,8,9,10,11,12,13,14,15,16,17-tetradecahydro-1H-cyclopenta[a]phenanthrene-3,17-dione","170.0 - 171.0","?C","443.5","K","","","","","","-","","-","","-","","-"
"CCOC1=CC(=CC(OCC)=C1OCC)C1=C2C=C(OC)C(OC)=CC2=CC=N1","-","-","-","6,7-Dimethoxy-1-(3,4,5-triethoxyphenyl)isoquinoline","98.0 - 103.0","?C","373.5","K","","","","","","-","","-","","-","","-"
"OC(=O)C1CSCN1C(=O)OCC1C2=CC=CC=C2C2=C1C=CC=C2","-","-","-","(4R)-3-[(9H-Fluoren-9-ylmethoxy)carbonyl]-1,3-thiazolane-4-carboxylic acid","156.0 - 158.0","?C","430.0","K","","","","","","-","","-","","-","","-"
"CC(C)(C)OC(=O)N1CCCC[C@H]1C(O)=O","-","-","-","(2R)-1-(tert-Butoxycarbonyl)hexahydropyridine-2-carboxylic acid","117.5 - 122.5","?C","393.0","K","","","","","","-","","-","","-","","-"
"CC1=CC=C(C=C1)C1=CSN=N1","-","-","-","4-(4-Methylphenyl)-1,2,3-thiadiazole","73.0 - 75.0","?C","347.0","K","","","","","","-","","-","","-","","-"
"CC1=CC(C(O)=O)=C(C)N1C1=CC=C(Cl)C=C1","-","-","-","1-(4-Chlorophenyl)-2,5-dimethyl-1H-pyrrole-3-carboxylic acid","229.5 - 230.0","?C","502.8","K","","","","","","-","","-","","-","","-"
"NC(=S)CC1=CC=C(C=C1)C1=CSN=N1","-","-","-","2-[4-(1,2,3-Thiadiazol-4-yl)phenyl]ethanethioamide","169.0 - 171.0","?C","443.0","K","","","","","","-","","-","","-","","-"
"CC(CSC1=CC=C(Cl)C=C1)C(O)=O","-","-","-","3-[(4-chlorophenyl)thio]-2-methylpropanoic acid","63.0 - 65.0","?C","337.0","K","","","","","","-","","-","","-","","-"
"CCOC(=O)C1=CN=C2SCCN2C1=O","-","-","-","Ethyl 5-oxo-2,3-dihydro-5H-pyrimido[2,1-b][1,3]thiazole-6-carboxylate","175.0 - 176.0","?C","448.5","K","","","","","","-","","-","","-","","-"
"CN(C)S(=O)(=O)OC1=CC=C(C=C1)C#N","-","-","-","4-Cyanophenyl N,N-dimethylsulfamate","70.0 - 73.0","?C","344.5","K","","","","","","-","","-","","-","","-"
"NC(=NO)C1=CC(=CC(=C1)C(F)(F)F)C(F)(F)F","-","-","-","N'-hydroxy-3,5-bis(trifluoromethyl)benzenecarboximidamide","131.0 - 133.0","?C","405.0","K","","","","","","-","","-","","-","","-"
"NC(=S)C1=NC=C(C=C1N1CCCC1)C(F)(F)F","-","-","-","3-(1-Pyrrolidinyl)-5-(trifluoromethyl)pyridine-2-carbothioamide","176.5 - 179.5","?C","451.0","K","","","","","","-","","-","","-","","-"
"O=CC1=CC=C(S1)C1=CC=C(S1)C1=CC=CS1","-","-","-","5-[5-(2-Thienyl)-2-thienyl]thiophene-2-carbaldehyde","133.0 - 135.0","?C","407.0","K","","","","","","-","","-","","-","","-"
"CC1=C(SC(=N1)C1=CC=CC=C1)C(=O)NN","-","-","-","4-Methyl-2-phenyl-1,3-thiazole-5-carbohydrazide","168.0 - 170.0","?C","442.0","K","","","","","","-","","-","","-","","-"
"NC(=S)C1=C(Cl)C=C(C=C1Cl)C(F)(F)F","-","-","-","2,6-dichloro-4-(trifluoromethyl)benzene-1-carbothioamide","176.0 - 178.0","?C","450.0","K","","","","","","-","","-","","-","","-"
"ClC1=CC(NN=C(C#N)C#N)=CC(Cl)=C1","-","-","-","2-[2-(3,5-dichlorophenyl)hydrazono]malononitrile","192.0 - 194.0","?C","466.0","K","","","","","","-","","-","","-","","-"
"NNC(=O)C1=CC=C(C=C1)C1=CC=CC=C1F","-","-","-","2'-Fluoro[1,1'-biphenyl]-4-carbohydrazide","153.0 - 155.0","?C","427.0","K","","","","","","-","","-","","-","","-"
"CC(C)(C)C1=NN(C(=C1)C(C)(C)C)C1=CC=C(N)C=C1","-","-","-","4-[3,5-Di(tert-butyl)-1H-pyrazol-1-yl]aniline","205.0 - 207.0","?C","479.0","K","","","","","","-","","-","","-","","-"
"ClC1=C(Cl)C=C(C=C1)C1=CSC(CC#N)=N1","-","-","-","2-[4-(3,4-Dichlorophenyl)-1,3-thiazol-2-yl]acetonitrile","106.0 - 107.0","?C","379.5","K","","","","","","-","","-","","-","","-"
"CCCOC1=C(Cl)C=C(C=C1Cl)C(O)=O","-","-","-","3,5-dichloro-4-propoxybenzoic acid","129.0 - 132.0","?C","403.5","K","","","","","","-","","-","","-","","-"
"CC(C)(C)C1=CC=C(C=C1)C1=NN=C(S)N1CC1=CC=CO1","-","-","-","5-[4-(tert-Butyl)phenyl]-4-(2-furylmethyl)-4H-1,2,4-triazole-3-thiol","155.5 - 158.5","?C","430.0","K","","","","","","-","","-","","-","","-"
"CC1=CC(Cl)=C(C)C=C1S(=O)(=O)CC1=CC=C(N)C=C1","-","-","-","4-{[(4-Chloro-2,5-dimethylphenyl)sulfonyl]methyl}aniline","156.0 - 158.0","?C","430.0","K","","","","","","-","","-","","-","","-"
"CC1=C(C)C(C#N)=C(N)N1CC1=C(Cl)C=CC=C1Cl","-","-","-","2-Amino-1-(2,6-dichlorobenzyl)-4,5-dimethyl-1H-pyrrole-3-carbonitrile","194.0 - 196.0","?C","468.0","K","","","","","","-","","-","","-","","-"
"NNC(=O)C1=CSC(CS(=O)(=O)C2=CC=C(Cl)C=C2)=N1","-","-","-","2-{[(4-Chlorophenyl)sulfonyl]methyl}-1,3-thiazole-4-carbohydrazide","205.5 - 207.0","?C","479.2","K","","","","","","-","","-","","-","","-"
"OC(=O)C1=CSC(=N1)C1=C(Cl)C(Cl)=CC=C1","-","-","-","2-(2,3-Dichlorophenyl)-1,3-thiazole-4-carboxylic acid","233.0 - 234.0","?C","506.5","K","","","","","","-","","-","","-","","-"
"CC1=C(SC(=N1)C1=CC(=CC=C1)N1C=CC=C1)C(=O)NN","-","-","-","4-Methyl-2-[3-(1H-pyrrol-1-yl)phenyl]-1,3-thiazole-5-carbohydrazide","185.0 - 186.0","?C","458.5","K","","","","","","-","","-","","-","","-"
"CC(=O)C1=C(C)N=C(S1)C1=CC=CS1","-","-","-","1-[4-Methyl-2-(2-thienyl)-1,3-thiazol-5-yl]ethan-1-one","121.0 - 122.0","?C","394.5","K","","","","","","-","","-","","-","","-"
"CC(=O)C1=CSC(=N1)C1=CC=C(OC(F)(F)F)C=C1","-","-","-","1-{2-[4-(trifluoromethoxy)phenyl]-1,3-thiazol-4-yl}ethan-1-one","45.5 - 48.0","?C","319.8","K","","","","","","-","","-","","-","","-"
"CC(C)(C)C1=NN(CC2=CC=C(F)C=C2)C(=C1)C(=O)NN","-","-","-","3-(tert-Butyl)-1-(4-fluorobenzyl)-1H-pyrazole-5-carbohydrazide","183.0 - 185.0","?C","457.0","K","","","","","","-","","-","","-","","-"
"CC(=O)C1=C(C)ON=C1C1=C(Cl)C=C(Cl)C=C1","-","-","-","1-[3-(2,4-Dichlorophenyl)-5-methylisoxazol-4-yl]ethan-1-one","55.0 - 59.0","?C","330.0","K","","","","","","-","","-","","-","","-"
"NC1=NC=CC(=N1)C1=CC(=NO1)C1=CC=CC(=C1)C(F)(F)F","-","-","-","4-{3-[3-(Trifluoromethyl)phenyl]isoxazol-5-yl}pyrimidin-2-amine","184.0 - 185.0","?C","457.5","K","","","","","","-","","-","","-","","-"
"CC1=CC=C(C=C1)C(N)=NO","-","-","-","N'-Hydroxy-4-methylbenzenecarboximidamide","136.0 - 137.0","?C","409.5","K","","","","","","-","","-","","-","","-"
"C1=CC2=C(C=C1)C1=C(C=CC=C1)C2C1=CC=NC=C1","-","-","-","4-(9H-Fluoren-9-yl)pyridine","142.0 - 145.0","?C","416.5","K","","","","","","-","","-","","-","","-"
"NC(=S)NC1=C(F)C=CC=C1","-","-","-","N-(2-fluorophenyl)thiourea","143.0 - 145.0","?C","417.0","K","","","","","","-","","-","","-","","-"
"CCC(C)CN1C(O)=NN=C1S","-","-","-","5-Mercapto-4-(2-methylbutyl)-4H-1,2,4-triazol-3-ol","147.0 - 151.0","?C","422.0","K","","","","","","-","","-","","-","","-"
"[O-][N+](=O)C1=CC=C2C(=O)N(CCCCCCBr)C(=O)C2=C1","-","-","-","2-(6-Bromohexyl)-5-nitroisoindoline-1,3-dione","83.0 - 85.0","?C","357.0","K","","","","","","-","","-","","-","","-"
"SC1=NN=C(N1C1=CC2=C(OCCO2)C=C1)C1=CC=CO1","-","-","-","4-(2,3-dihydro-1,4-benzodioxin-6-yl)-5-(2-furyl)-4H-1,2,4-triazole-3-thiol","237.0 - 240.0","?C","511.5","K","","","","","","-","","-","","-","","-"
"CC1=CC(CN2N=C(C=C2C(=O)NN)C(C)(C)C)=CC=C1","-","-","-","3-(tert-Butyl)-1-(3-methylbenzyl)-1H-pyrazole-5-carbohydrazide","102.0 - 104.0","?C","376.0","K","","","","","","-","","-","","-","","-"
"CC(=NO)C1=CC=CO1","-","-","-","1-(2-Furyl)-1-ethanone oxime","104.0 - 105.0","?C","377.5","K","","","","","","-","","-","","-","","-"
"FC(F)(F)C1=CC=CC(CSC2=NN=C(S)S2)=C1","-","-","-","5-{[3-(Trifluoromethyl)benzyl]thio}-1,3,4-thiadiazole-2-thiol","140.0 - 142.0","?C","414.0","K","","","","","","-","","-","","-","","-"
"NC1=NC(N)=NC(=S)S1","-","-","-","6-amino-4-imino-4H-1,3,5-thiadiazine-2-thiol","360.0","?C","633.0","K","","","","","","-","","-","","-","","-"
"CC(=O)NC1=C(OC(F)(F)F)C=CC=C1","-","-","-","N1-[2-(Trifluoromethoxy)phenyl]acetamide","68.0 - 70.0","?C","342.0","K","","","","","","-","","-","","-","","-"
"BrC1=CC=CC=C1NC(=O)NC1=C(Br)C=CC=C1","-","-","-","N,N'-Di(2-bromophenyl)urea","235.0 - 237.0","?C","509.0","K","","","","","","-","","-","","-","","-"
"CCCC1=CC=C(C=C1)C(C)=NO","-","-","-","1-(4-Propylphenyl)ethan-1-one oxime","48.0 - 50.0","?C","322.0","K","","","","","","-","","-","","-","","-"
"CC(=O)NC1=C(C)C=C(Cl)C=C1Cl","-","-","-","N1-(2,4-Dichloro-6-methylphenyl)acetamide","174.0 - 176.0","?C","448.0","K","","","","","","-","","-","","-","","-"
"CC(=O)NC1=CC=C(Cl)C=C1C","-","-","-","4-Chloro-2-methylacetanilide","136.0 - 138.0","?C","410.0","K","","","","","","-","","-","","-","","-"
"N#CC(N1CCOCC1)C1=CC=CC=C1","-","-","-","2-Morpholino-2-phenylacetonitrile","69.0 - 71.0","?C","343.0","K","","","","","","-","","-","","-","","-"
"CS(=O)(=O)C1=CC=C2N=C(N)SC2=C1","-","-","-","6-(methylsulfonyl)-1,3-benzothiazol-2-amine","222.0 - 223.0","?C","495.5","K","","","","","","-","","-","","-","","-"
"C1CC2=C(C=CN=N2)C2=NON=C12","-","-","-","4,5-Dihydro[1,2,5]oxadiazolo[3,4-f]cinnoline","108.0 - 110.0","?C","382.0","K","","","","","","-","","-","","-","","-"
"COC1=CC=C2C=C(C=CC2=C1)C1=CC=NN1","-","-","-","5-(6-Methoxy-2-naphthyl)-1H-pyrazole","201.0","?C","474.0","K","","","","","","-","","-","","-","","-"
"CC1=C(OC2=CC=C(Cl)C=C2)C(C)=NN1","-","-","-","4-(4-Chlorophenoxy)-3,5-dimethyl-1H-pyrazole","139.0 - 141.0","?C","413.0","K","","","","","","-","","-","","-","","-"
"CC(C)(C)OC(=O)NC1=CC=C(C=C1)C(O)=O","-","-","-","4-[(tert-Butoxycarbonyl)amino]benzoic acid","179.0 - 181.0","?C","453.0","K","","","","","","-","","-","","-","","-"