"SMILES","CASRN","EXTERNALID","N","NAME","Melting Point","UNIT {Melting Point}","Melting Point {measured, converted}","UNIT {Melting Point}","Dataset","comment (property)","comment (chemical)","measurement method","Pressure","UNIT {Pressure}","Som set numeric condition","UNIT {Som set numeric condition}","Resp set numeric condition","UNIT {Resp set numeric condition}","Quality code","UNIT {Quality code}"
"CC(C)CCCC(C)C1CCC2C3CCC4=CC(=O)CCC4(C)C3CCC12C","-","-","-","17-(1,5-dimethylhexyl)-10,13-dimethyl-2,3,6,7,8,9,10,11,12,13,14,15,16,17-tetradecah","79.0 - 82.0","?C","353.5","K","","","","","","-","","-","","-","","-"
"CC1=CC(=CC(CN(CC(O)=O)CC(O)=O)=C1O)C1(OC(=O)C2=CC=CC=C12)C1=CC(C)=C(O)C(CN(CC(O)=O)CC(O)=O)=C1","-","-","-","o-Cresolphthalein complexone","181.0","?C","454.0","K","","","","","","-","","-","","-","","-"
"CC1=CC=CC(CO)=C1[N+]([O-])=O","-","-","-","3-Methyl-2-nitrobenzyl alcohol","42.0 - 48.0","?C","318.0","K","","","","","","-","","-","","-","","-"
"COC1=CC=C(C=C1)C(=O)C1=CC=CS1","-","-","-","2-(4-Methoxybenzoyl)thiophene","73.0 - 76.0","?C","347.5","K","","","","","","-","","-","","-","","-"
"OCC1=C(Cl)C=CC(=C1)[N+]([O-])=O","-","-","-","(2-chloro-5-nitrophenyl)methanol","77.0 - 78.0","?C","350.5","K","","","","","","-","","-","","-","","-"
"OCC1(CC1)C1=CC=C(Cl)C=C1","-","-","-","1-(4-Chlorophenyl)-1-cyclopropanemethanol","50.0 - 54.0","?C","325.0","K","","","","","","-","","-","","-","","-"
"COC1=C(CO)C=C(Br)C=C1","-","-","-","5-Bromo-2-methoxybenzyl alcohol","68.0 - 73.0","?C","343.5","K","","","","","","-","","-","","-","","-"
"CCOC(=O)OC1=C(OC)C=C(C=C1OC)C(O)=O","-","-","-","4-Ethoxycarbonyloxy-3,5-dimethoxybenzoic acid","180.0 - 185.0","?C","455.5","K","","","","","","-","","-","","-","","-"
"OC1=CC=CC(C=O)=C1O","-","-","-","2,3-Dihydroxybenzaldehyde","104.0 - 109.0","?C","379.5","K","","","","","","-","","-","","-","","-"
"OC(=O)C(C1CCCC1)C1=CC=CC=C1","-","-","-","alpha-Phenylcyclopentaneacetic acid","96.0 - 100.0","?C","371.0","K","","","","","","-","","-","","-","","-"
"O=C1CCCC2=C1C1=C3C(CCC1)=CC=C1CCCC2=C31","-","-","-","1,2,3,6,7,8,11,12-octahydrobenzo[e]pyren-9(10H)-one","146.0 - 149.0","?C","420.5","K","","","","","","-","","-","","-","","-"
"NC(CO)C1=CC=CC=C1","-","-","-","(R)-(-)-2-Phenylglycinol","75.0 - 79.0","?C","350.0","K","","","","","","-","","-","","-","","-"
"CC(=O)N1C2C(N(C(C)=O)C1=O)N(C(C)=O)C(=O)N2C(C)=O","-","-","-","N,N',N'',N'''-Tetraacetylglycoluril","234.0 - 238.0","?C","509.0","K","","","","","","-","","-","","-","","-"
"CNC(=S)NCC(C)=C","-","-","-","1-Methallyl-3-methyl-2-thiourea","60.0 - 64.0","?C","335.0","K","","","","","","-","","-","","-","","-"
"CSC1=NC(N)=NN1","-","-","-","3-Amino-5-methylthio-1H-1,2,4-triazole","130.0 - 133.0","?C","404.5","K","","","","","","-","","-","","-","","-"
"CCOC1=CC(=C(N)C=C1)[N+]([O-])=O","-","-","-","4-Ethoxy-2-nitroaniline","110.0 - 114.0","?C","385.0","K","","","","","","-","","-","","-","","-"
"CC(O)C(C1=CC=CC=C1)C1=CC=CC=C1","-","-","-","1,1-Diphenyl-2-propanol","59.0 - 63.0","?C","334.0","K","","","","","","-","","-","","-","","-"
"CC(=O)OCC1=C(N2C(SC1)C(N)C2=O)C(O)=O","-","-","-","7-Aminocephalosporanic Acid","300.0","?C","573.0","K","","","","","","-","","-","","-","","-"
"ClC1=C2C=CC=C3C(=O)OC(=O)C(C=C1)=C23","-","-","-","4-Chloro-1,8-naphthalic anhydride","207.0 - 210.0","?C","481.5","K","","","","","","-","","-","","-","","-"
"CC1=CC(CCl)=C(C=C1)[N+]([O-])=O","-","-","-","5-Methyl-2-nitrobenzyl chloride","41.0 - 47.0","?C","317.0","K","","","","","","-","","-","","-","","-"
"CC1=CC(C)=C(C(C)=C1)S(=O)(=O)NN","-","-","-","2,4,6-Trimethylbenzenesulfonyl hydrazide","114.0","?C","387.0","K","","","","","","-","","-","","-","","-"
"CN1C2=CC=CC=C2C(=O)C2=C1C=CC=C2","-","-","-","10-Methyl-9(10H)-acridone","204.0 - 207.0","?C","478.5","K","","","","","","-","","-","","-","","-"
"ClC1=CC2=C(NC(=N2)C(Cl)(Cl)Cl)C=C1","-","-","-","5-Chloro-2-(trichloromethyl)benzimidazole","223.0 - 229.0","?C","499.0","K","","","","","","-","","-","","-","","-"
"CC(C)(NC(=O)OCC1=CC=CC=C1)C(O)=O","-","-","-","N-Carbobenzyloxy-2-methylalanine","77.0 - 80.0","?C","351.5","K","","","","","","-","","-","","-","","-"
"CC(C(C#N)C(N)=O)C(C#N)C(N)=O","-","-","-","2,4-Dicyano-3-methylglutaramide","151.0 - 160.0","?C","428.5","K","","","","","","-","","-","","-","","-"
"CC(C)(C)OC(=O)ON=C(C#N)C1=CC=CC=C1","-","-","-","Boc-on","86.0 - 89.0","?C","360.5","K","","","","","","-","","-","","-","","-"
"CCNC1=C(C=C(C=C1)[N+]([O-])=O)[N+]([O-])=O","-","-","-","2,4-Dinitro-N-ethylaniline","108.0 - 119.0","?C","386.5","K","","","","","","-","","-","","-","","-"
"NC1=NC(N)=C(N=O)C(N)=N1","-","-","-","5-Nitroso-2,4,6-triaminopyrimidine","300.0","?C","573.0","K","","","","","","-","","-","","-","","-"
"NC1=CC=C(NC2=C3C(=O)C4=CC=CC=C4C(=O)C3=C(N)C=C2)C2=C1C(=O)C1=C(C=CC=C1)C2=O","-","-","-","ACID BLACK 48","275.0","?C","548.0","K","","","","","","-","","-","","-","","-"
"CC(C)(C1=CC(Br)=C(OCCO)C(Br)=C1)C1=CC(Br)=C(OCCO)C(Br)=C1","-","-","-","4,4'-Isopropylidenebis[2-(2,6-dibromophenoxy)ethanol]","108.0 - 114.0","?C","384.0","K","","","","","","-","","-","","-","","-"
"CCC1C(=O)CCC1=O","-","-","-","2-Ethyl-1,3-cyclopentanedione","172.0 - 175.0","?C","446.5","K","","","","","","-","","-","","-","","-"
"CCC12CCCN3CCC4=C(C13)N(C1=C4C=CC=C1)C(=O)C2","-","-","-","(-)-Eburnamonine","173.0 - 177.0","?C","448.0","K","","","","","","-","","-","","-","","-"
"CCCC1(C)CC(=O)NC1=O","-","-","-","alpha-Methyl-alpha-propylsuccinimide","76.0 - 78.0","?C","350.0","K","","","","","","-","","-","","-","","-"
"COC1=C(C)C=C(C=C1C)C(O)=O","-","-","-","3,5-dimethyl-p-anisic acid","190.0 - 194.0","?C","465.0","K","","","","","","-","","-","","-","","-"
"CC1=C(CCl)C=CC=C1[N+]([O-])=O","-","-","-","2-Methyl-3-nitrobenzyl chloride","42.0 - 47.0","?C","317.5","K","","","","","","-","","-","","-","","-"
"COC1=CC2=C(C=C1)C(CCN)=CN2","-","-","-","6-Methoxytryptamine","143.0 - 146.0","?C","417.5","K","","","","","","-","","-","","-","","-"
"OC1=CC(=O)C(O)=CC1=O","-","-","-","2,5-Dihydroxy-1,4-benzoquinone","220.0","?C","493.0","K","","","","","","-","","-","","-","","-"
"[O-][N+](=O)C1=NC=CN1","-","-","-","2-NITROIMIDAZOLE","287.0","?C","560.0","K","","","","","","-","","-","","-","","-"
"CC1(C)CC(=O)C=C(O1)C(O)=O","-","-","-","3,4-dihydro-2,2-dimethyl-4-oxo-2H-pyran-6-carboxylic acid","167.0 - 171.0","?C","442.0","K","","","","","","-","","-","","-","","-"
"COC1=C(C=C(C=C1)C(O)=O)[N+]([O-])=O","-","-","-","4-Methoxy-3-nitrobenzoic acid","191.0 - 194.0","?C","465.5","K","","","","","","-","","-","","-","","-"
"OC(C1=C(F)C(F)=C(F)C(F)=C1F)C1=C(F)C(F)=C(F)C(F)=C1F","-","-","-","Decafluorobenzhydrol","76.0 - 80.0","?C","351.0","K","","","","","","-","","-","","-","","-"
"NC1=C(F)C(F)=C(C(F)=C1F)C1=C(F)C(F)=C(N)C(F)=C1F","-","-","-","4,4'-Diaminooctafluorobiphenyl","175.0 - 179.0","?C","450.0","K","","","","","","-","","-","","-","","-"
"NC1=CC=CC=C1N1C=CC=C1","-","-","-","1-(2-Aminophenyl)pyrrole","94.0 - 98.0","?C","369.0","K","","","","","","-","","-","","-","","-"
"C(N1C=CC=C1)C1=CN=CC=C1","-","-","-","3-(Pyrrol-1-ylmethyl)pyridine","59.0 - 64.0","?C","334.5","K","","","","","","-","","-","","-","","-"
"NC1=CC=C(C=C1)N1CCOCC1","-","-","-","4-Morpholinoaniline","130.0 - 131.0","?C","403.5","K","","","","","","-","","-","","-","","-"
"COC1=CC(N)=C(OC)C=C1[N+]([O-])=O","-","-","-","2,5-Dimethoxy-4-nitroaniline","153.0 - 157.0","?C","428.0","K","","","","","","-","","-","","-","","-"
"NC(=S)NC1=CC=C(Cl)C(Cl)=C1","-","-","-","N-(3,4-Dichlorophenyl)thiourea","210.0 - 213.0","?C","484.5","K","","","","","","-","","-","","-","","-"
"CC1=NN(C(=O)C1)C1=CC=C(C=C1)C(O)=O","-","-","-","4-(3-Methyl-5-oxo-2-pyrazolin-1-yl)benzoic acid","284.0 - 288.0","?C","559.0","K","","","","","","-","","-","","-","","-"
"COC1=CC(O)=CC(OC)=C1OC","-","-","-","3,4,5-Trimethoxyphenol","146.0 - 149.0","?C","420.5","K","","","","","","-","","-","","-","","-"
"OC1=C(Br)C=C(C=C1Br)C1(OS(=O)(=O)C2=C1C(Br)=C(Br)C(Br)=C2Br)C1=CC(Br)=C(O)C(Br)=C1","-","-","-","Tetrabromophenol blue","203.0 - 205.0","?C","477.0","K","","","","","","-","","-","","-","","-"
"CN1C(C)=CC=C1C#N","-","-","-","1,5-Dimethyl-2-pyrrolecarbonitrile","53.0 - 56.0","?C","327.5","K","","","","","","-","","-","","-","","-"
"OC1=CC=C(C=C1Cl)C1(OS(=O)(=O)C2=CC=CC=C12)C1=CC(Cl)=C(O)C=C1","-","-","-","CHLOROPHENOL RED","261.0","?C","534.0","K","","","","","","-","","-","","-","","-"
"CC1(C)NC2=CC=CC3=C(C=CC(N1)=C23)N=NC1=C2C=CC=CC2=C(C=C1)N=NC1=CC=CC=C1","-","-","-","Sudan black B","120.0 - 124.0","?C","395.0","K","","","","","","-","","-","","-","","-"
"OC1=CC2=C(C=C1Cl)C1(OC(=O)C3=C1C=CC=C3)C1=CC(Cl)=C(O)C=C1O2","-","-","-","2',7'-Dichlorofluorescein","280.0","?C","553.0","K","","","","","","-","","-","","-","","-"
"CCOC1=CC(NC(=O)C2=CC=CC=C2)=C(OCC)C=C1N","-","-","-","Fast blue BB","98.0 - 100.0","?C","372.0","K","","","","","","-","","-","","-","","-"
"CCNC1=CC=C2C=CC=CC2=C1N=NC1=CC=C(C=C1)N=NC1=CC=CC=C1","-","-","-","Sudan Red 7B","130.0","?C","403.0","K","","","","","","-","","-","","-","","-"
"CC(=O)OC1=CC2=C(C=C1)C1(OC(=O)C3=C1C=CC=C3)C1=CC=C(OC(C)=O)C=C1O2","-","-","-","Fluorescein diacetate","200.0 - 205.0","?C","475.5","K","","","","","","-","","-","","-","","-"
"CC1=C(Br)C(O)=NC(N)=N1","-","-","-","2-Amino-5-bromo-6-methyl-4-pyrimidinol","244.0 - 246.0","?C","518.0","K","","","","","","-","","-","","-","","-"
"CCCCCNC1=C2C(=O)C3=C(C=CC=C3)C(=O)C2=C(NCCCCC)C=C1","-","-","-","Oil blue N","210.0","?C","483.0","K","","","","","","-","","-","","-","","-"
"COC(=O)C1=CC=C(C(=O)OC)C(N)=C1","-","-","-","Dimethyl aminoterephthalate","132.0 - 134.0","?C","406.0","K","","","","","","-","","-","","-","","-"
"CC1=CC(=C(C)C(Br)=C1O)C1(OS(=O)(=O)C2=C1C=CC=C2)C1=CC(C)=C(O)C(Br)=C1C","-","-","-","Bromoxylenol Blue","218.0","?C","491.0","K","","","","","","-","","-","","-","","-"
"COC1=CC(C=C)=CC=C1OCC1=CC=CC=C1","-","-","-","4-Benzyloxy-3-methoxystyrene","48.0 - 55.0","?C","324.5","K","","","","","","-","","-","","-","","-"
"ClC1=C2C=CC=CC2=C2C=CC=CC2=C1","-","-","-","9-CHLOROPHENANTHRENE","46.0 - 50.0","?C","321.0","K","","","","","","-","","-","","-","","-"
"COC1=C(OC)C=C(C=C1)C(=O)C1=CC=CC(OC)=C1OC","-","-","-","2,3,3',4'-Tetramethoxybenzophenone","118.0 - 120.0","?C","392.0","K","","","","","","-","","-","","-","","-"
"CNCC(O)C1=CC=CC=C1","-","-","-","DL-alpha-(Methylaminomethyl)benzyl alcohol","74.0 - 76.0","?C","348.0","K","","","","","","-","","-","","-","","-"
"COC1=CC=C(C=C1N)C1=CC=CC=C1","-","-","-","5-Phenyl-o-anisidine","81.0 - 84.0","?C","355.5","K","","","","","","-","","-","","-","","-"
"CC1C(=O)OC(C)(C)OC1=O","-","-","-","2,2,5-Trimethyl-1,3-dioxane-4,6-dione","109.0 - 113.0","?C","384.0","K","","","","","","-","","-","","-","","-"
"OC1=CC(O)=C(SC2=CC=C(O)C=C2O)C=C1","-","-","-","Resorcinol sulfide","173.0 - 177.0","?C","448.0","K","","","","","","-","","-","","-","","-"
"OC(=O)C1CCCNC1","-","-","-","NIPECOTIC ACID","246.0 - 253.0","?C","522.5","K","","","","","","-","","-","","-","","-"
"NC1=CC=C(C=C1[N+]([O-])=O)C(=O)C1=CC=CC=C1","-","-","-","4-Amino-3-nitrobenzophenone","140.0 - 143.0","?C","414.5","K","","","","","","-","","-","","-","","-"
"[O-][N+](=O)C1=CC=C(C=C1)N=NC1=CC=C(NC2=CC=CC=C2)C=C1","-","-","-","Disperse Orange 1","160.0","?C","433.0","K","","","","","","-","","-","","-","","-"
"OC1=C(Br)C2=C(C=C1[N+]([O-])=O)C1(OC(=O)C3=C1C=CC=C3)C1=CC(=C(O)C(Br)=C1O2)[N+]([O-])=O","-","-","-","Eosin B","275.0","?C","548.0","K","","","","","","-","","-","","-","","-"
"CN1C(=S)NN=C1C(F)(F)F","-","-","-","4-Methyl-5-trifluoromethyl-4H-1,2,4-triazolin-3(2H)-thione","116.0 - 118.0","?C","390.0","K","","","","","","-","","-","","-","","-"
"CN1N(C(=O)C=C1C)C1=CC=C(C)C=C1","-","-","-","2,3-Dimethyl-1-(4-methylphenyl)-3-pyrazolin-5-one","130.0 - 137.0","?C","406.5","K","","","","","","-","","-","","-","","-"
"COC1=CC=C(C=CC2=CC=CC=C2)C=C1","-","-","-","4-Methoxystilbene","135.0 - 138.0","?C","409.5","K","","","","","","-","","-","","-","","-"
"CC(CO)C1CCC2C3CCC4=CC(=O)C=CC4(C)C3CCC12C","-","-","-","20-(Hydroxymethyl)pregna-1,4-dien-3-one","178.0 - 184.0","?C","454.0","K","","","","","","-","","-","","-","","-"
"OC(=O)C(C(O)=O)C1=CSC=C1","-","-","-","3-Thiophenemalonic acid","139.0","?C","412.0","K","","","","","","-","","-","","-","","-"
"CN1C=NC2=NC=NC2=C1N","-","-","-","1-Methyladenine","300.0","?C","573.0","K","","","","","","-","","-","","-","","-"
"NC(C(O)=O)C1=CC=C(O)C=C1","-","-","-","D(-)-4-Hydroxyphenylglycine","240.0","?C","513.0","K","","","","","","-","","-","","-","","-"
"CNC(=O)C1=C(C)C=CC=C1","-","-","-","N-Methyl-o-toluamide","73.0 - 77.0","?C","348.0","K","","","","","","-","","-","","-","","-"
"CN(C)C1=CC2=C(C=C1)N=C1C=CC(=O)C=C1S2","-","-","-","Methylene violet","216.0","?C","489.0","K","","","","","","-","","-","","-","","-"
"NC1=CC(Cl)=C(C=C1)C(O)=O","-","-","-","4-AMINO-2-CHLOROBENZOIC ACID","210.0 - 215.0","?C","485.5","K","","","","","","-","","-","","-","","-"
"FC1=CC=CC(Cl)=C1C(Cl)(Cl)Cl","-","-","-","alpha,alpha,alpha,2-Tetrachloro-6-fluorotoluene","38.0 - 43.0","?C","313.5","K","","","","","","-","","-","","-","","-"
"CCCCCCCCCCCCCCCCCCCCCCC(O)=O","-","-","-","TRICOSANOIC ACID","79.0 - 80.0","?C","352.5","K","","","","","","-","","-","","-","","-"
"CC1=CC=C(N)C(=C1)S(O)(=O)=O","-","-","-","6-Amino-m-toluenesulfonic acid","300.0","?C","573.0","K","","","","","","-","","-","","-","","-"
"OC1(C2=CC=CC=C2)C2=CC=CC=C2OC2=C1C=CC=C2","-","-","-","9-Phenylxanthen-9-ol","158.0 - 162.0","?C","433.0","K","","","","","","-","","-","","-","","-"
"CN(C)C1=CC=C(C=CC(O)=O)C=C1","-","-","-","4-(Dimethylamino)cinnamic acid","225.0 - 228.0","?C","499.5","K","","","","","","-","","-","","-","","-"
"CNC(CC1=CNC2=C1C=CC=C2)C(O)=O","-","-","-","N-Methyl-L-tryptophan","295.0","?C","568.0","K","","","","","","-","","-","","-","","-"
"O=C(C=CC1=CC=CC=C1)N1C=CN=C1","-","-","-","N-trans-Cinnamoylimidazole","127.0 - 133.0","?C","403.0","K","","","","","","-","","-","","-","","-"
"C[N+](C)(C)CC([O-])=O","-","-","-","Betaine","301.0","?C","574.0","K","","","","","","-","","-","","-","","-"
"CCSCCC(N)C(O)=O","-","-","-","D-Ethionine","278.0","?C","551.0","K","","","","","","-","","-","","-","","-"
"NC(CCS(O)(=O)=O)C(O)=O","-","-","-","DL-homocysteic acid","273.0","?C","546.0","K","","","","","","-","","-","","-","","-"
"CC(C)CC(O)C(O)=O","-","-","-","DL-alpha-Hydroxyisocaproic acid","75.0 - 78.0","?C","349.5","K","","","","","","-","","-","","-","","-"
"OCC(CO)(CO)NCCCS(O)(=O)=O","-","-","-","TAPS","240.0","?C","513.0","K","","","","","","-","","-","","-","","-"
"OC1=C2CCCC(=O)C2=CC=C1","-","-","-","5-Hydroxy-1-tetralone","207.0 - 210.0","?C","481.5","K","","","","","","-","","-","","-","","-"
"OC1=CC(=CC=C1)C(=O)C1=CC=CC=C1","-","-","-","3-Hydroxybenzophenone","117.0 - 119.0","?C","391.0","K","","","","","","-","","-","","-","","-"
"OC(=O)C1C(C(O)=O)C1=C","-","-","-","3-Methylenecyclopropane-trans-1,2-dicarboxylic acid","197.0 - 201.0","?C","472.0","K","","","","","","-","","-","","-","","-"
"CCOC(=O)CC1=CSC(N)=N1","-","-","-","Ethyl 2-amino-4-thiazoleacetate","91.0 - 95.0","?C","366.0","K","","","","","","-","","-","","-","","-"
"CC12CC(=O)CC1(C)CC(=O)C2","-","-","-","cis-1,5-Dimethylbicyclo[3.3.0]octane-3,7-dione","228.0 - 230.0","?C","502.0","K","","","","","","-","","-","","-","","-"
"CC(C)NC(=O)CN1CCNCC1","-","-","-","N-Isopropyl-1-piperazineacetamide","82.0 - 88.0","?C","358.0","K","","","","","","-","","-","","-","","-"
"CCOC(=O)CCC(NC(=O)C1=CC=C(C=C1)[N+]([O-])=O)C(=O)OCC","-","-","-","N-(4-Nitrobenzoyl)-L-glutamic acid diethylester","92.0 - 95.0","?C","366.5","K","","","","","","-","","-","","-","","-"
"OC(=O)C(CC=CC1=CC=CC=C1)NC(=O)OCC1C2=C(C=CC=C2)C2=C1C=CC=C2","-","-","-","(S)-N-Fmoc-Styrylalanine","141.7","?C","414.7","K","","","","","","-","","-","","-","","-"
"OC(=O)C(CC1=CSC=C1)NC(=O)OCC1C2=C(C=CC=C2)C2=C1C=CC=C2","-","-","-","(S)-N-Fmoc-3-Thienylalanine","188.4","?C","461.4","K","","","","","","-","","-","","-","","-"
"OC(=O)C(CC=C)NC(=O)OCC1C2=C(C=CC=C2)C2=C1C=CC=C2","-","-","-","(S)-N-Fmoc-Allylglycine","137.1","?C","410.1","K","","","","","","-","","-","","-","","-"
"OC(=O)C(CC(Br)=C)NC(=O)OCC1C2=C(C=CC=C2)C2=C1C=CC=C2","-","-","-","(S)-N-Fmoc-(2-Bromoallyl)glycine","119.6","?C","392.6","K","","","","","","-","","-","","-","","-"
"CCCCCCCCC(NC(=O)OCC1C2=C(C=CC=C2)C2=C1C=CC=C2)C(O)=O","-","-","-","(S)-N-Fmoc-Octylglycine","142.6","?C","415.6","K","","","","","","-","","-","","-","","-"
"OC(=O)C(CC#C)NC(=O)OCC1C2=C(C=CC=C2)C2=C1C=CC=C2","-","-","-","(S)-N-Fmoc-Propargylglycine","175.0","?C","448.0","K","","","","","","-","","-","","-","","-"
"OC(=O)CC(NC(=O)OCC1C2=C(C=CC=C2)C2=C1C=CC=C2)C1=CC=CC=C1","-","-","-","(S)-N-Fmoc-3-Amino-3-phenylpropanoic acid","187.3","?C","460.3","K","","","","","","-","","-","","-","","-"
"OC(=O)C(CC1=CC(F)=CC=C1)NC(=O)OCC1C2=C(C=CC=C2)C2=C1C=CC=C2","-","-","-","(S)-N-Fmoc-3-Fluorophenylalanine","155.8","?C","428.8","K","","","","","","-","","-","","-","","-"
"OC(=O)C(CC1=CC=C(F)C=C1)NC(=O)OCC1C2=C(C=CC=C2)C2=C1C=CC=C2","-","-","-","(S)-N-Fmoc-4-Fluorophenylalanine","185.4","?C","458.4","K","","","","","","-","","-","","-","","-"
"OC(=O)C(CC1=CC=C(C=C1)C#N)NC(=O)OCC1C2=C(C=CC=C2)C2=C1C=CC=C2","-","-","-","(S)-N-Fmoc-4-Cyanophenylalanine","189.0","?C","462.0","K","","","","","","-","","-","","-","","-"
"OC(=O)C1CCN1C(=O)OCC1C2=C(C=CC=C2)C2=C1C=CC=C2","-","-","-","(S)-N-Fmoc-Azetidine-2-carboxylic acid","135.0","?C","408.0","K","","","","","","-","","-","","-","","-"
"OC(=O)C(CC1=CC(=CC=C1)C#N)NC(=O)OCC1C2=C(C=CC=C2)C2=C1C=CC=C2","-","-","-","(S)-N-Fmoc-3-Cyanophenylalanine","115.6","?C","388.6","K","","","","","","-","","-","","-","","-"
"OC(=O)CC(NC(=O)OCC1C2=C(C=CC=C2)C2=C1C=CC=C2)C1=CC=CC(=C1)[N+]([O-])=O","-","-","-","(S)-N-Fmoc-3-Amino-3-(3-nitrophenyl)propanoic acid","140.0","?C","413.0","K","","","","","","-","","-","","-","","-"
"CC(C)(C)OC(=O)NC(CC1=CC=C(Br)C=C1)C(O)=O","-","-","-","(S)-N-Boc-4-Bromophenylalanine","118.0","?C","391.0","K","","","","","","-","","-","","-","","-"
"CC(C)(C)OC(=O)NC(CC1=CC=C(Br)S1)C(O)=O","-","-","-","(S)-N-Boc-2-(5-Bromothienyl)alanine","70.3","?C","343.3","K","","","","","","-","","-","","-","","-"
"CC(C)(C)OC(=O)NC(CC1=CC=CS1)C(O)=O","-","-","-","(S)-N-Boc-2-Thienylalanine","71.0 - 76.0","?C","346.5","K","","","","","","-","","-","","-","","-"
"CC(C)(C)OC(=O)NC(CC#C)C(O)=O","-","-","-","(S)-N-Boc-Propargylglycine","85.5","?C","358.5","K","","","","","","-","","-","","-","","-"
"CC(C)(C)OC(=O)NC1CCC(C1)C(O)=O","-","-","-","(1R,3S)-N-Boc-1-Aminocyclopentane-3-carboxylic acid","111.8","?C","384.8","K","","","","","","-","","-","","-","","-"
"CC(C)(C)OC(=O)NC(CC(O)=O)C1=CC=C(Br)C=C1","-","-","-","(S)-N-Boc-3-Amino-3-(4-bromophenyl)propanoic acid","143.8","?C","416.8","K","","","","","","-","","-","","-","","-"
"CC(C)(C)OC(=O)N1CCC1C(O)=O","-","-","-","(S)-N-Boc-Azetidine-2-carboxylic acid","105.0 - 110.0","?C","380.5","K","","","","","","-","","-","","-","","-"
"CC(C)(C)OC(=O)NC(CC1=C(F)C=CC=C1)C(O)=O","-","-","-","(S)-N-Boc-2-Fluorophenylalanine","92.0 - 96.0","?C","367.0","K","","","","","","-","","-","","-","","-"
"CC(C)(C)OC(=O)NC(C(O)=O)C1=CC=C(F)C=C1","-","-","-","(S)-N-Boc-4-Fluorophenylglycine","130.2","?C","403.2","K","","","","","","-","","-","","-","","-"
"CC(C)(C)OC(=O)NC(CC1=CC(=CC=C1)C#N)C(O)=O","-","-","-","(S)-N-Boc-3-Cyanophenylalanine","124.1","?C","397.1","K","","","","","","-","","-","","-","","-"
"CC(C)(C)OC(=O)NC(CC1=CC=C(Cl)C=C1)C(O)=O","-","-","-","(S)-N-Boc-4-Chlorophenylalanine","110.0","?C","383.0","K","","","","","","-","","-","","-","","-"
"NC(C(O)=O)C1=CC=C(F)C=C1","-","-","-","(S)-4-Fluorophenylglycine","300.0","?C","573.0","K","","","","","","-","","-","","-","","-"
"COC(=O)C(CC(O)=O)C1CCCCC1","-","-","-","(S)-2-Cyclohexylsuccinic acid-1-methyl ester","47.9","?C","320.9","K","","","","","","-","","-","","-","","-"
"COC(=O)C(CC(O)=O)CC1=C2C=CC=CC2=CC=C1","-","-","-","(S)-2-(1-Naphthylmethyl)succinic acid-1-methyl ester","113.1","?C","386.1","K","","","","","","-","","-","","-","","-"