"SMILES","CASRN","EXTERNALID","N","NAME","Melting Point","UNIT {Melting Point}","Melting Point {measured, converted}","UNIT {Melting Point}","Dataset","comment (property)","comment (chemical)","measurement method","Pressure","UNIT {Pressure}","Som set numeric condition","UNIT {Som set numeric condition}","Resp set numeric condition","UNIT {Resp set numeric condition}","Quality code","UNIT {Quality code}"
"COC(=O)C1=CC(C)=C(Br)S1","-","-","-","Methyl 5-bromo-4-methyl-2-thiophenecarboxylate","35.0 - 37.0","?C","309.0","K","","","","","","-","","-","","-","","-"
"CC1=CC(C)=C(C=C1)C(=O)CBr","-","-","-","2-Bromo-1-(2,4-dimethylphenyl)ethan-1-one","44.0","?C","317.0","K","","","","","","-","","-","","-","","-"
"ON=CC1=CC=CO1","-","-","-","2-Furaldehyde oxime","78.0 - 80.0","?C","352.0","K","","","","","","-","","-","","-","","-"
"CCC1CCC(C)(C)C2=C1C=C(C(=O)CBr)C(CC)=C2","-","-","-","2-Bromo-1-(3-ethyl-5,5,8,8-tetramethyl-5,6,7,8-tetrahydronaphthalen-2-yl)ethan-1-one","72.0 - 74.0","?C","346.0","K","","","","","","-","","-","","-","","-"
"NS(=O)(=O)C=CC1=CC=CC=C1","-","-","-","2-Phenyleth-1-ene-1-sulfonamide","138.0 - 140.0","?C","412.0","K","","","","","","-","","-","","-","","-"
"COC1=C(OC)C=C(C(CC(O)=O)=C1)[N+]([O-])=O","-","-","-","2-(4,5-Dimethoxy-2-nitrophenyl)acetic acid","111.0 - 112.0","?C","384.5","K","","","","","","-","","-","","-","","-"
"CC1=C(C)C(C)=C(C(=O)C2=CC=CC=C2C(O)=O)C(C)=C1C","-","-","-","2-(2,3,4,5,6-Pentamethylbenzoyl)benzoic acid","278.0 - 282.0","?C","553.0","K","","","","","","-","","-","","-","","-"
"CC1=C(C)C(C)=C(C(=O)CC2=CC=CC=C2)C(C)=C1C","-","-","-","1-(2,3,4,5,6-Pentamethylphenyl)-2-phenylethan-1-one","135.0","?C","408.0","K","","","","","","-","","-","","-","","-"
"ClCC1=NC(=NO1)C1=CC=C(Cl)C=C1","-","-","-","5-(Chloromethyl)-3-(4-chlorophenyl)-1,2,4-oxadiazole","60.0 - 61.0","?C","333.5","K","","","","","","-","","-","","-","","-"
"CC1=CC(C)=C2C(CC(C)(C)C(=O)OC2=O)=C1","-","-","-","4,4,7,9-Tetramethyl-1,3,4,5-tetrahydro-2-benzoxepine-1,3-dione","99.0 - 100.0","?C","372.5","K","","","","","","-","","-","","-","","-"
"CC1N=C(S)N2C(C)N=C(S)N12","-","-","-","1,5-Dimethyl-1H,5H-[1,2,4]triazolo[1,2-a][1,2,4]triazole-3,7-dithiol","182.0 - 184.0","?C","456.0","K","","","","","","-","","-","","-","","-"
"SC1=NC2(CCCCC2)NN1C1=CC=CC=C1","-","-","-","2-Phenyl-1,2,4-triazaspiro[4.5]dec-3-ene-3-thiol","146.0 - 149.0","?C","420.5","K","","","","","","-","","-","","-","","-"
"ClCC1=CSC(=N1)C1=CC=C(Cl)C=C1","-","-","-","4-(Chloromethyl)-2-(4-chlorophenyl)-1,3-thiazole","78.0 - 79.0","?C","351.5","K","","","","","","-","","-","","-","","-"
"ClCC1=CC(Cl)=CC2=C1OCOC2","-","-","-","6-Chloro-8-(chloromethyl)-4H-1,3-benzodioxine","101.0","?C","374.0","K","","","","","","-","","-","","-","","-"
"NC1=C(C=C(C(Cl)=C1)C(F)(F)F)[N+]([O-])=O","-","-","-","5-Chloro-2-nitro-4-(trifluoromethyl)aniline","113.0 - 114.0","?C","386.5","K","","","","","","-","","-","","-","","-"
"NNC1=C(C=C(C(Cl)=C1)C(F)(F)F)[N+]([O-])=O","-","-","-","1-[5-Chloro-2-nitro-4-(trifluoromethyl)phenyl]hydrazine","140.0 - 145.0","?C","415.5","K","","","","","","-","","-","","-","","-"
"NC1=CN=C(C=C1)N1CCOCC1","-","-","-","6-Morpholinopyridin-3-amine","129.0 - 130.0","?C","402.5","K","","","","","","-","","-","","-","","-"
"CC1=C(N=NN1C1=CC(=CC=C1)C(F)(F)F)C(O)=O","-","-","-","5-Methyl-1-[3-(trifluoromethyl)phenyl]-1H-1,2,3-triazole-4-carboxylic acid","155.0 - 156.0","?C","428.5","K","","","","","","-","","-","","-","","-"
"FC(F)(F)C1=CC(=CC(C=CC#N)=C1)C(F)(F)F","-","-","-","3-[3,5-Di(trifluoromethyl)phenyl]acrylonitrile","80.0","?C","353.0","K","","","","","","-","","-","","-","","-"
"CNC1=NN=C(S1)C(F)(F)F","-","-","-","N2-Methyl-5-(trifluoromethyl)-1,3,4-thiadiazol-2-amine","115.0 - 117.0","?C","389.0","K","","","","","","-","","-","","-","","-"
"NNC(=O)C1=C(N=NS1)C1=CC=CC=C1","-","-","-","4-Phenyl-1,2,3-thiadiazole-5-carbohydrazide","129.0 - 130.0","?C","402.5","K","","","","","","-","","-","","-","","-"
"CN(C)C1=C(C#N)C(F)=C(C=O)C=C1","-","-","-","6-(Dimethylamino)-2-fluoro-3-formylbenzonitrile","125.0 - 127.0","?C","399.0","K","","","","","","-","","-","","-","","-"
"FC1=CC=CC(Cl)=C1COC1=CC=C(C=O)C=C1","-","-","-","4-[(2-Chloro-6-fluorobenzyl)oxy]benzaldehyde","74.0 - 78.0","?C","349.0","K","","","","","","-","","-","","-","","-"
"ClC1=CC=CC(OC2=CC=C(C=C2)S(Cl)(=O)=O)=C1C#N","-","-","-","4-(3-Chloro-2-cyanophenoxy)benzene-1-sulfonyl chloride","137.0 - 139.0","?C","411.0","K","","","","","","-","","-","","-","","-"
"OC1=CC=C(C(O)=C1C#N)[N+]([O-])=O","-","-","-","2,6-Dihydroxy-3-nitrobenzonitrile","239.0 - 240.0","?C","512.5","K","","","","","","-","","-","","-","","-"
"NC1=NN=C(SC2=NC=CC=C2[N+]([O-])=O)S1","-","-","-","5-[(3-Nitro-2-pyridyl)thio]-1,3,4-thiadiazol-2-amine","216.0","?C","489.0","K","","","","","","-","","-","","-","","-"
"FC1=CC2=C(OCOC2)C(CCl)=C1","-","-","-","8-(Chloromethyl)-6-fluoro-4H-1,3-benzodioxine","78.0 - 80.0","?C","352.0","K","","","","","","-","","-","","-","","-"
"COC(=O)C1=C(NC(=O)CBr)C=CS1","-","-","-","Methyl 3-[(2-bromoacetyl)amino]thiophene-2-carboxylate","91.0 - 94.0","?C","365.5","K","","","","","","-","","-","","-","","-"
"CN1N=C(C)C(=C1Cl)[N+]([O-])=O","-","-","-","5-Chloro-1,3-dimethyl-4-nitro-1H-pyrazole","75.0 - 77.0","?C","349.0","K","","","","","","-","","-","","-","","-"
"ClC1=CC(=CC(Cl)=C1)N1C=CC=C1C=O","-","-","-","1-(3,5-Dichlorophenyl)-1H-pyrrole-2-carbaldehyde","150.0 - 152.0","?C","424.0","K","","","","","","-","","-","","-","","-"
"ClC1=CC(Cl)=C(OC2=CC=CC=C2C#N)C=C1","-","-","-","2-(2,4-Dichlorophenoxy)benzonitrile","84.0 - 86.0","?C","358.0","K","","","","","","-","","-","","-","","-"
"NC1=C(C(=O)C2=CC=CC=C12)C1=CC=CC=C1","-","-","-","3-Amino-2-phenyl-1H-inden-1-one","270.0 - 273.0","?C","544.5","K","","","","","","-","","-","","-","","-"
"CC(=O)CC1=NN(C=N1)C1=NOC(C)=C1","-","-","-","1-[1-(5-Methylisoxazol-3-yl)-1H-1,2,4-triazol-3-yl]acetone","138.0 - 140.0","?C","412.0","K","","","","","","-","","-","","-","","-"
"CCOC(=O)C1=CN=C(N)N=C1C","-","-","-","Ethyl 2-amino-4-methylpyrimidine-5-carboxylate","224.0 - 225.0","?C","497.5","K","","","","","","-","","-","","-","","-"
"CC1=CC(=CC(NN)=N1)C(F)(F)F","-","-","-","1-[6-Methyl-4-(trifluoromethyl)-2-pyridyl]hydrazine","79.0 - 81.0","?C","353.0","K","","","","","","-","","-","","-","","-"
"CN1N=C(C)C(=C1Cl)S(O)(=O)=O","-","-","-","5-Chloro-1,3-dimethyl-1H-pyrazole-4-sulfonic acid","308.0 - 310.0","?C","582.0","K","","","","","","-","","-","","-","","-"
"CC1=C(C=NN1C1=CC=C(Cl)C=C1)C(O)=O","-","-","-","1-(4-Chlorophenyl)-5-methyl-1H-pyrazole-4-carboxylic acid","201.0 - 202.0","?C","474.5","K","","","","","","-","","-","","-","","-"
"CN1N=C(C)C(N=NC2=CC=CC=C2)=C1Cl","-","-","-","5-Chloro-1,3-dimethyl-4-(2-phenyldiaz-1-enyl)-1H-pyrazole","44.0 - 46.0","?C","318.0","K","","","","","","-","","-","","-","","-"
"CC1=C(Br)SC(NC(N)=N)=N1","-","-","-","N-(5-Bromo-4-methyl-1,3-thiazol-2-yl)guanidine","203.0 - 205.0","?C","477.0","K","","","","","","-","","-","","-","","-"
"OC(=O)C1=CC(Br)=CC(Br)=C1","-","-","-","3,5-Dibromobenzoic acid","224.0 - 226.0","?C","498.0","K","","","","","","-","","-","","-","","-"
"NC(=O)NCC#C","-","-","-","N-Prop-2-ynylurea","130.0 - 131.0","?C","403.5","K","","","","","","-","","-","","-","","-"
"ON=C1CCCCCN1","-","-","-","Azepan-2-one oxime","168.0 - 170.0","?C","442.0","K","","","","","","-","","-","","-","","-"
"O=C1CC(CC(=O)C1)C1=CC=CO1","-","-","-","5-(2-Furyl)cyclohexane-1,3-dione","146.0 - 149.0","?C","420.5","K","","","","","","-","","-","","-","","-"
"FC1=CC=C(C=C1)C1CC(=O)CC(=O)C1","-","-","-","5-(4-Fluorophenyl)cyclohexane-1,3-dione","173.9 - 178.3","?C","449.1","K","","","","","","-","","-","","-","","-"
"CCOC(=O)CC1NCCNC1=O","-","-","-","Ethyl 2-(3-oxo-2-piperazinyl)acetate","102.0 - 105.0","?C","376.5","K","","","","","","-","","-","","-","","-"
"NC1=C(C=NO1)C1=NC=CC=C1","-","-","-","4-Pyridin-2-ylisoxazol-5-amine","133.0 - 136.0","?C","407.5","K","","","","","","-","","-","","-","","-"
"OC(=O)C1=C(O)C=CC(=C1)S(Cl)(=O)=O","-","-","-","5-Chlorosulfonyl-2-hydroxybenzoic acid","168.0 - 170.0","?C","442.0","K","","","","","","-","","-","","-","","-"
"O=S1(=O)CCN(CC2=CC=CC=C2)CC1","-","-","-","4-Benzylthiomorpholine 1,1-dioxide","85.0 - 86.0","?C","358.5","K","","","","","","-","","-","","-","","-"
"OC(=O)C1=CSC(=C1)[N+]([O-])=O","-","-","-","5-Nitrothiophene-3-carboxylic acid","147.0 - 148.0","?C","420.5","K","","","","","","-","","-","","-","","-"
"NC1=CC=C(C=C1)C1=CN=CO1","-","-","-","4-(1,3-Oxazol-5-yl)aniline","150.0 - 151.0","?C","423.5","K","","","","","","-","","-","","-","","-"
"OC(=O)C1CN(CC2=CC=CS2)C(=O)C1","-","-","-","5-Oxo-1-(2-thienylmethyl)pyrrolidine-3-carboxylic acid","144.0 - 146.0","?C","418.0","K","","","","","","-","","-","","-","","-"
"OC(=O)C1CN(CC2=CC=CO2)C(=O)C1","-","-","-","1-(2-Furylmethyl)-5-oxopyrrolidine-3-carboxylic acid","159.0 - 160.0","?C","432.5","K","","","","","","-","","-","","-","","-"
"ClC1=CC=C(C=C1)C(=O)C(Br)C1=CC=CC=C1","-","-","-","2-Bromo-1-(4-chlorophenyl)-2-phenylethan-1-one","65.0 - 66.0","?C","338.5","K","","","","","","-","","-","","-","","-"
"CC1=CC=C(C=C1)C(Br)C(=O)C1=CC=C(Cl)C=C1","-","-","-","2-Bromo-1-(4-chlorophenyl)-2-(4-methylphenyl)ethan-1-one","76.0 - 78.0","?C","350.0","K","","","","","","-","","-","","-","","-"
"CC1=CC=C(C=C1)C(=O)C(=O)C1=CC=C(Cl)C=C1","-","-","-","1-(4-Chlorophenyl)-2-(4-methylphenyl)ethane-1,2-dione","123.0 - 124.0","?C","396.5","K","","","","","","-","","-","","-","","-"
"COC1=CC(I)=C(OC)C=C1Cl","-","-","-","1-Chloro-4-iodo-2,5-dimethoxybenzene","115.0 - 116.0","?C","388.5","K","","","","","","-","","-","","-","","-"
"NC(=S)CC1=CC=C(Cl)C=C1","-","-","-","4-Chlorophenylthioacetamide","129.0 - 131.0","?C","403.0","K","","","","","","-","","-","","-","","-"
"NC1=C(C=CC=C1)C(=NO)C1=CC=CC=C1","-","-","-","(2-Aminophenyl)(phenyl)methanone oxime","157.0 - 158.0","?C","430.5","K","","","","","","-","","-","","-","","-"
"CN1N=C(C)C(C=O)=C1Cl","-","-","-","5-Chloro-1,3-dimethyl-1H-pyrazole-4-carbaldehyde","78.0 - 79.0","?C","351.5","K","","","","","","-","","-","","-","","-"
"CC(C=CC1=CC=CC=C1)=NO","-","-","-","4-Phenylbut-3-en-2-one oxime","116.0 - 120.0","?C","391.0","K","","","","","","-","","-","","-","","-"
"OC1=CC=C(Cl)C=C1C#N","-","-","-","5-Chloro-2-hydroxybenzonitrile","165.0 - 168.0","?C","439.5","K","","","","","","-","","-","","-","","-"
"NC1=C(C#N)C(C(C#N)C#N)C2=CC(Cl)=CC=C2O1","-","-","-","2-(2-Amino-6-chloro-3-cyano-4H-chromen-4-yl)malononitrile","155.0 - 156.0","?C","428.5","K","","","","","","-","","-","","-","","-"
"NC1=C(C#N)C(C(C#N)C#N)C2=CC(Br)=CC(Br)=C2O1","-","-","-","2-(2-Amino-6,8-dibromo-3-cyano-4H-chromen-4-yl)malononitrile","300.0","?C","573.0","K","","","","","","-","","-","","-","","-"
"CC(=O)C1=C(N)C=CS1","-","-","-","1-(3-Amino-2-thienyl)ethan-1-one","86.0 - 88.0","?C","360.0","K","","","","","","-","","-","","-","","-"
"CC(=O)NC1=C(SC=C1)C(O)=O","-","-","-","3-(Acetylamino)thiophene-2-carboxylic acid","200.0 - 202.0","?C","474.0","K","","","","","","-","","-","","-","","-"
"COC(=O)C1=C(C=CS1)N=C=S","-","-","-","Methyl 3-isothiocyanatothiophene-2-carboxylate","57.0 - 59.0","?C","331.0","K","","","","","","-","","-","","-","","-"
"N#CCC1=NC2=C(S1)C=CC=C2","-","-","-","2-(1,3-Benzothiazol-2-yl)acetonitrile","102.0","?C","375.0","K","","","","","","-","","-","","-","","-"
"ClC1=NC=NC2=C1SC=C2","-","-","-","4-Chlorothieno[3,2-d]pyrimidine","125.0 - 126.0","?C","398.5","K","","","","","","-","","-","","-","","-"
"COC(=O)C1=C(C=CS1)S(Cl)(=O)=O","-","-","-","methyl 3-chlorosulfonylthiophene-2-carboxylate","62.0 - 66.0","?C","337.0","K","","","","","","-","","-","","-","","-"
"COC(=O)C1=C(N)C=C(S1)C1=CC=CC=C1","-","-","-","Methyl 3-amino-5-phenylthiophene-2-carboxylate","147.0 - 149.0","?C","421.0","K","","","","","","-","","-","","-","","-"
"COC(=O)C1=C(N)C=C(S1)C1=CC=C(Cl)C=C1","-","-","-","Methyl 3-amino-5-(4-chlorophenyl)thiophene-2-carboxylate","140.0 - 141.0","?C","413.5","K","","","","","","-","","-","","-","","-"
"CC(=O)C1=C(N)C=C(S1)C1=CC=C(Cl)C=C1","-","-","-","1-[3-Amino-5-(4-chlorophenyl)-2-thienyl]ethan-1-one","138.0 - 140.0","?C","412.0","K","","","","","","-","","-","","-","","-"
"COC(=O)C1=C(N)C=C(S1)C(C)(C)C","-","-","-","Methyl 3-amino-5-(tert-butyl)thiophene-2-carboxylate","94.0 - 95.0","?C","367.5","K","","","","","","-","","-","","-","","-"
"CC(C)(C)C1=CC(N)=C(S1)C(N)=O","-","-","-","3-Amino-5-(tert-butyl)thiophene-2-carboxamide","146.0 - 148.0","?C","420.0","K","","","","","","-","","-","","-","","-"
"CN1N=C(C(C=O)=C1Cl)C(F)(F)F","-","-","-","5-Chloro-1-methyl-3-(trifluoromethyl)-1H-pyrazole-4-carbaldehyde","41.0 - 42.0","?C","314.5","K","","","","","","-","","-","","-","","-"
"NC1=C(C=CS1)C#N","-","-","-","2-Aminothiophene-3-carbonitrile","103.0 - 106.0","?C","377.5","K","","","","","","-","","-","","-","","-"
"COC(=O)C1=C(N)C=C(S1)C1=CC=C(F)C=C1","-","-","-","Methyl 3-amino-5-(4-fluorophenyl)thiophene-2-carboxylate","153.0 - 155.0","?C","427.0","K","","","","","","-","","-","","-","","-"
"COC(=O)C1=C(C=CS1)N1C(=O)C=CC1=O","-","-","-","Methyl 3-(2,5-dioxo-2,5-dihydro-1H-pyrrol-1-yl)thiophene-2-carboxylate","130.0 - 131.0","?C","403.5","K","","","","","","-","","-","","-","","-"
"COC(=O)C1=C(Cl)C=CS1","-","-","-","Methyl 3-chlorothiophene-2-carboxylate","39.0 - 40.0","?C","312.5","K","","","","","","-","","-","","-","","-"
"COC(=O)C1=C(Cl)C(C)=CS1","-","-","-","Methyl 3-chloro-4-methylthiophene-2-carboxylate","76.0 - 78.0","?C","350.0","K","","","","","","-","","-","","-","","-"
"CC1=CSC(C(=O)NN)=C1Cl","-","-","-","3-Chloro-4-methylthiophene-2-carbohydrazide","130.0 - 132.0","?C","404.0","K","","","","","","-","","-","","-","","-"
"ClC(=O)C1=C(Cl)C=CS1","-","-","-","3-Chlorothiophene-2-carbonyl chloride","45.0 - 46.0","?C","318.5","K","","","","","","-","","-","","-","","-"
"COC(=O)C1=C(N=C=S)C(C)=CS1","-","-","-","Methyl 3-isothiocyanato-4-methylthiophene-2-carboxylate","58.0 - 60.0","?C","332.0","K","","","","","","-","","-","","-","","-"
"OC(=O)C1=C(N(N=C1)C1=CC=CC=C1)C(F)(F)F","-","-","-","1-Phenyl-5-(trifluoromethyl)-1H-pyrazole-4-carboxylic acid","139.0 - 141.0","?C","413.0","K","","","","","","-","","-","","-","","-"
"CCCC1=C(C=NN1C1=CC=CC=C1)C(O)=O","-","-","-","1-Phenyl-5-propyl-1H-pyrazole-4-carboxylic acid","107.0 - 110.0","?C","381.5","K","","","","","","-","","-","","-","","-"
"CCCC1=C(C=NN1C1=CC=C(Cl)C=C1)C(O)=O","-","-","-","1-(4-Chlorophenyl)-5-propyl-1H-pyrazole-4-carboxylic acid","116.0 - 119.0","?C","390.5","K","","","","","","-","","-","","-","","-"
"CC1=CSC2=C1N=CN=C2Cl","-","-","-","4-Chloro-7-methylthieno[3,2-d]pyrimidine","124.0 - 125.0","?C","397.5","K","","","","","","-","","-","","-","","-"
"CC1=CSC2=C1C(Cl)=NC=N2","-","-","-","4-Chloro-5-methylthieno[2,3-d]pyrimidine","137.0 - 138.0","?C","410.5","K","","","","","","-","","-","","-","","-"
"CCOC(=O)C1=CNC(=O)N=C1C(F)(F)F","-","-","-","Ethyl 2-hydroxy-4-(trifluoromethyl)-5-pyrimidinecarboxylate","165.0","?C","438.0","K","","","","","","-","","-","","-","","-"
"COC(=O)C1=C(NN)C=CS1","-","-","-","Methyl 3-hydrazinothiophene-2-carboxylate","69.0 - 71.0","?C","343.0","K","","","","","","-","","-","","-","","-"
"COC(=O)C1=CSC=C1N","-","-","-","Methyl 4-aminothiophene-3-carboxylate","35.0 - 38.0","?C","309.5","K","","","","","","-","","-","","-","","-"
"CC1=CSC(=C1)C(O)=O","-","-","-","4-Methylthiophene-2-carboxylic acid","124.0 - 125.0","?C","397.5","K","","","","","","-","","-","","-","","-"
"FC(F)(F)C1=C(C=NC(Cl)=N1)C(=O)OCC1=CC=C(Cl)C=C1","-","-","-","4-Chlorobenzyl 2-chloro-4-(trifluoromethyl)pyrimidine-5-carboxylate","69.0 - 71.0","?C","343.0","K","","","","","","-","","-","","-","","-"
"FC(F)(F)C1=NC(Cl)=NC=C1C(=O)OCC1CC1","-","-","-","Cyclopropylmethyl 2-chloro-4-(trifluoromethyl)pyrimidine-5-carboxylate","108.0 - 110.0","?C","382.0","K","","","","","","-","","-","","-","","-"
"NNC(=O)C1=C(N(N=C1)C1=CC=CC=C1)C(F)(F)F","-","-","-","1-Phenyl-5-(trifluoromethyl)-1H-pyrazole-4-carbohydrazide","153.0 - 155.0","?C","427.0","K","","","","","","-","","-","","-","","-"
"NNC1=NC(=C(C=N1)C(=O)OCC1=CC=C(Cl)C=C1)C(F)(F)F","-","-","-","4-Chlorobenzyl 2-hydrazino-4-(trifluoromethyl)pyrimidine-5-carboxylate","111.0 - 113.0","?C","385.0","K","","","","","","-","","-","","-","","-"
"COC(=O)C1=C(OC2=CC=C(Cl)C=C2[N+]([O-])=O)C=CS1","-","-","-","Methyl 3-(4-chloro-2-nitrophenoxy)thiophene-2-carboxylate","125.0 - 128.0","?C","399.5","K","","","","","","-","","-","","-","","-"
"[O-][N+](=O)C1=CC=C(C=C1)N1N=CC(C(Cl)=O)=C1C(F)(F)F","-","-","-","1-(4-Nitrophenyl)-5-(trifluoromethyl)-1H-pyrazole-4-carbonyl chloride","77.0 - 79.0","?C","351.0","K","","","","","","-","","-","","-","","-"
"CC1=CSC2=C1C(NN)=NC=N2","-","-","-","4-Hydrazino-5-methylthieno[2,3-d]pyrimidine","182.0 - 183.0","?C","455.5","K","","","","","","-","","-","","-","","-"
"COC(=O)C1=C(OC)C(Br)=CS1","-","-","-","Methyl 4-bromo-3-methoxythiophene-2-carboxylate","73.0 - 74.0","?C","346.5","K","","","","","","-","","-","","-","","-"
"CN1N=C(C(C(O)=O)=C1Cl)C(F)(F)F","-","-","-","5-Chloro-1-methyl-3-(trifluoromethyl)-1H-pyrazole-4-carboxylic acid","201.0 - 202.0","?C","474.5","K","","","","","","-","","-","","-","","-"
"COC(=O)C1=C(N)SC=C1","-","-","-","methyl 2-aminothiophene-3-carboxylate","79.0","?C","352.0","K","","","","","","-","","-","","-","","-"
"CN1N=CC=C1N","-","-","-","1-Methyl-1H-pyrazol-5-ylamine","73.0 - 76.0","?C","347.5","K","","","","","","-","","-","","-","","-"
"CN1N=CC(Br)=C1N","-","-","-","4-Bromo-1-methyl-1H-pyrazol-5-amine","104.0 - 105.0","?C","377.5","K","","","","","","-","","-","","-","","-"
"COC(=O)C1=C(N)C=C(S1)C1=CC=C(C=C1)C(C)(C)C","-","-","-","Methyl 3-amino-5-[4-(tert-butyl)phenyl]thiophene-2-carboxylate","156.0 - 157.0","?C","429.5","K","","","","","","-","","-","","-","","-"
"CC(=O)C1=C(N)C=C(S1)C1=CC=C(C=C1)C(C)(C)C","-","-","-","1-{3-Amino-5-[4-(tert-butyl)phenyl]-2-thienyl}ethan-1-one","179.0 - 181.0","?C","453.0","K","","","","","","-","","-","","-","","-"
"CC(C)(C)C1=CC=C(C=C1)C1=CC(N)=C(S1)C(N)=O","-","-","-","3-Amino-5-[4-(tert-butyl)phenyl]thiophene-2-carboxamide","244.0 - 248.0","?C","519.0","K","","","","","","-","","-","","-","","-"
"CN1N=CC(C(Cl)=O)=C1Cl","-","-","-","5-Chloro-1-methyl-1H-pyrazole-4-carbonyl chloride","50.0 - 52.0","?C","324.0","K","","","","","","-","","-","","-","","-"
"CC1=CSC(N)=C1C1=NC2=C(S1)C=CC=C2","-","-","-","3-(1,3-Benzothiazol-2-yl)-4-methylthiophen-2-amine","111.0 - 112.0","?C","384.5","K","","","","","","-","","-","","-","","-"
"CC(=O)NC1=C(Cl)C=C(C=C1)S(Cl)(=O)=O","-","-","-","4-(Acetylamino)-3-chlorobenzene-1-sulfonyl chloride","143.0 - 145.0","?C","417.0","K","","","","","","-","","-","","-","","-"
"C1CN(CCN1)C1=NC(=NS1)C1=CC=CC=C1","-","-","-","3-Phenyl-5-piperazino-1,2,4-thiadiazole","93.0 - 94.0","?C","366.5","K","","","","","","-","","-","","-","","-"
"CCOC(=O)C1=C(N)SC=C1C1=CC=CO1","-","-","-","Ethyl 2-amino-4-(2-furyl)thiophene-3-carboxylate","86.0 - 89.0","?C","360.5","K","","","","","","-","","-","","-","","-"
"N#CC1=CC=CN=C1N1CCNCC1","-","-","-","2-Piperazinonicotinonitrile","76.0 - 78.0","?C","350.0","K","","","","","","-","","-","","-","","-"
"NC1=CC=C(C=C1)C1=CN2CCSC2=N1","-","-","-","4-(2,3-Dihydroimidazo[2,1-b][1,3]thiazol-6-yl)aniline","225.0 - 226.0","?C","498.5","K","","","","","","-","","-","","-","","-"
"CN1CCC2=C(C1)SC(N)=C2C#N","-","-","-","2-Amino-6-methyl-4,5,6,7-tetrahydrothieno[2,3-c]pyridine-3-carbonitrile","192.0 - 194.0","?C","466.0","K","","","","","","-","","-","","-","","-"
"CC1=C(CCO)C(=O)N2C(NC3=C2C=CC=C3)=C1C#N","-","-","-","2-(2-Hydroxyethyl)-3-methyl-1-oxo-1,5-dihydropyrido[1,2-a]benzimidazole-4-carbonitrile","250.0","?C","523.0","K","","","","","","-","","-","","-","","-"
"CCC1C(C#N)=C(N)OC2=C1C(=O)OC1=CC=CC=C21","-","-","-","2-Amino-4-ethyl-5-oxo-4H,5H-pyrano[3,2-c]chromene-3-carbonitrile","233.0 - 237.0","?C","508.0","K","","","","","","-","","-","","-","","-"
"CCC1=CC(C(=O)C2=CC=C(OC)C=C2)=C(N)S1","-","-","-","(2-Amino-5-ethyl-3-thienyl)(4-methoxyphenyl)methanone","100.0 - 102.0","?C","374.0","K","","","","","","-","","-","","-","","-"