"SMILES","CASRN","EXTERNALID","N","NAME","Melting Point","UNIT {Melting Point}","Melting Point {measured, converted}","UNIT {Melting Point}","Dataset","comment (property)","comment (chemical)","measurement method","Pressure","UNIT {Pressure}","Som set numeric condition","UNIT {Som set numeric condition}","Resp set numeric condition","UNIT {Resp set numeric condition}","Quality code","UNIT {Quality code}"
"ClC1=CC=C(C=C1)C(=O)NCC1=CC=C(S1)S(Cl)(=O)=O","-","-","-","5-{[(4-Chlorobenzoyl)amino]methyl}thiophene-2-sulfonyl chloride","138.0 - 140.0","?C","412.0","K","","","","","","-","","-","","-","","-"
"CSC1=C2C(CCCC2=O)=C(S1)C(N)=S","-","-","-","3-(Methylthio)-4-oxo-4,5,6,7-tetrahydro-2-benzothiophene-1-carbothioamide","232.0 - 233.0","?C","505.5","K","","","","","","-","","-","","-","","-"
"CSC1=C2C(CC(C)(C)CC2=NO)=CS1","-","-","-","6,6-Dimethyl-3-(methylthio)-4,5,6,7-tetrahydrobenzo[c]thiophen-4-one oxime","151.0 - 154.0","?C","425.5","K","","","","","","-","","-","","-","","-"
"CCOC(=O)C1=C(N)C(=C(SC)S1)S(=O)(=O)C(C)C","-","-","-","Ethyl 3-amino-4-(isopropylsulfonyl)-5-(methylthio)thiophene-2-carboxylate","143.0 - 146.0","?C","417.5","K","","","","","","-","","-","","-","","-"
"CN1N=C(C=C1C1=CC=C(S1)S(Cl)(=O)=O)C(F)(F)F","-","-","-","5-[1-Methyl-3-(trifluoromethyl)-1H-pyrazol-5-yl]thiophene-2-sulfonyl chloride","68.0 - 70.0","?C","342.0","K","","","","","","-","","-","","-","","-"
"NS(=O)(=O)C1=CC=C(SC2=CC=C(Cl)C=C2)S1","-","-","-","5-[(4-Chlorophenyl)thio]thiophene-2-sulfonamide","133.0 - 136.0","?C","407.5","K","","","","","","-","","-","","-","","-"
"NNS(=O)(=O)C1=CC=C(S1)C1=NC=CC=C1","-","-","-","5-(2-Pyridyl)thiophene-2-sulfonohydrazide","109.0 - 111.0","?C","383.0","K","","","","","","-","","-","","-","","-"
"SC1=NC=CC(=N1)C1=CC=CS1","-","-","-","4-(2-Thienyl)pyrimidine-2-thiol","206.0 - 215.0","?C","483.5","K","","","","","","-","","-","","-","","-"
"CSC1=NC=CC(=N1)C1=CC=C(S1)S(Cl)(=O)=O","-","-","-","5-[2-(Methylthio)pyrimidin-4-yl]thiophene-2-sulfonyl chloride","129.0 - 131.0","?C","403.0","K","","","","","","-","","-","","-","","-"
"COC1=CC=C(C=C1)C1=NC(S)=NC=C1","-","-","-","4-(4-Methoxyphenyl)pyrimidine-2-thiol","202.0","?C","475.0","K","","","","","","-","","-","","-","","-"
"CCOC(=O)C1=C(N)SC(C)=C1C","-","-","-","ethyl 2-amino-4,5-dimethylthiophene-3-carboxylate","90.0 - 91.0","?C","363.5","K","","","","","","-","","-","","-","","-"
"NC(=S)CSC1=CC=CC=C1","-","-","-","2-(Phenylthio)ethanethioamide","88.0 - 91.0","?C","362.5","K","","","","","","-","","-","","-","","-"
"CC(C)(C)C1=CSC(=N1)C1=CC=C(C=O)C=C1","-","-","-","4-[4-(tert-Butyl)-1,3-thiazol-2-yl]benzaldehyde","106.0 - 107.0","?C","379.5","K","","","","","","-","","-","","-","","-"
"CN1C2=C(C(C)=C(C)S2)C(=O)CS1(=O)=O","-","-","-","1,5,6-Trimethyl-1,2,3,4-tetrahydro-2lambda6-thieno[2,3-c][1,2]thiazine-2,2,4-trion","122.0 - 124.0","?C","396.0","K","","","","","","-","","-","","-","","-"
"ClS(=O)(=O)C1=CC=C(CNC(=O)C2=CC=CC=C2)S1","-","-","-","5-[(Benzoylamino)methyl]thiophene-2-sulfonyl chloride","123.0 - 125.0","?C","397.0","K","","","","","","-","","-","","-","","-"
"CCOC(=O)CN1C(Br)=NC(Cl)=C1Cl","-","-","-","Ethyl 2-(2-bromo-4,5-dichloro-1H-imidazol-1-yl)acetate","42.0 - 45.0","?C","316.5","K","","","","","","-","","-","","-","","-"
"CC1=NN(CC2=NN=C(S)O2)C(C)=C1Br","-","-","-","5-[(4-Bromo-3,5-dimethyl-1H-pyrazol-1-yl)methyl]-1,3,4-oxadiazole-2-thiol","194.0 - 195.0","?C","467.5","K","","","","","","-","","-","","-","","-"
"NNC(=O)COC1=CC=CC=C1CSC1=CC=C(Cl)C=C1","-","-","-","2-(2-[[(4-Chlorophenyl)thio]methyl]phenoxy)ethanohydrazide","118.0 - 121.0","?C","392.5","K","","","","","","-","","-","","-","","-"
"FC(F)(F)OC1=CC=C(C=C1)C(=O)CC#N","-","-","-","3-Oxo-3-[4-(trifluoromethoxy)phenyl]propanenitrile","82.0 - 84.0","?C","356.0","K","","","","","","-","","-","","-","","-"
"COC(=O)C1=CSC=C1SC1=CC=C(Cl)C=C1","-","-","-","Methyl 4-[(4-chlorophenyl)thio]thiophene-3-carboxylate","77.0 - 79.0","?C","351.0","K","","","","","","-","","-","","-","","-"
"OC(=O)C1=CSC=C1SC1=CC=C(Cl)C=C1","-","-","-","4-[(4-Chlorophenyl)thio]thiophene-3-carboxylic acid","195.0 - 198.0","?C","469.5","K","","","","","","-","","-","","-","","-"
"ClC1=NC=CN=C1C#N","-","-","-","3-Chloropyrazine-2-carbonitrile","42.0 - 45.0","?C","316.5","K","","","","","","-","","-","","-","","-"
"CSC1=C2C(CC(C)(C)CC2=O)=C(Cl)S1","-","-","-","1-Chloro-6,6-dimethyl-3-(methylthio)-4,5,6,7-tetrahydrobenzo[c]thiophen-4-one","126.0 - 129.0","?C","400.5","K","","","","","","-","","-","","-","","-"
"OC1=C(Cl)C(=O)CCC1","-","-","-","2-Chloro-3-hydroxycyclohex-2-en-1-one","198.0 - 204.0","?C","474.0","K","","","","","","-","","-","","-","","-"
"ClC1=C(C=C(S1)S(Cl)(=O)=O)S(Cl)(=O)=O","-","-","-","5-Chlorothiophene-2,4-disulfonyl dichloride","79.0 - 84.0","?C","354.5","K","","","","","","-","","-","","-","","-"
"CN1N=C(C=C1C(F)(F)F)C1=CC=C(S1)C=O","-","-","-","5-[1-Methyl-5-(trifluoromethyl)-1H-pyrazol-3-yl]thiophene-2-carbaldehyde","80.0 - 81.0","?C","353.5","K","","","","","","-","","-","","-","","-"
"[O-][N+](=O)C1=C(Cl)SC=C1","-","-","-","2-Chloro-3-nitrothiophene","51.0 - 52.0","?C","324.5","K","","","","","","-","","-","","-","","-"
"COC(=O)CSCCC(N)=S","-","-","-","Methyl 2-[(3-amino-3-thioxopropyl)thio]acetate","78.0 - 81.0","?C","352.5","K","","","","","","-","","-","","-","","-"
"ClC1=CC=C(SC2=C(C=O)C=CS2)C=C1","-","-","-","2-[(4-Chlorophenyl)thio]thiophene-3-carbaldehyde","57.0 - 60.0","?C","331.5","K","","","","","","-","","-","","-","","-"
"CC(=O)C1=CC=C(O)C(CC=C)=C1","-","-","-","1-(3-Allyl-4-hydroxyphenyl)ethan-1-one","115.0 - 118.0","?C","389.5","K","","","","","","-","","-","","-","","-"
"SC1=NC(=CC=N1)C1=CC=C(Cl)C=C1","-","-","-","4-(4-Chlorophenyl)pyrimidine-2-thiol","210.0 - 214.0","?C","485.0","K","","","","","","-","","-","","-","","-"
"NS(=O)(=O)C1=CC=C(SC2=CC=CS2)S1","-","-","-","5-(2-Thienylthio)thiophene-2-sulfonamide","105.0 - 108.0","?C","379.5","K","","","","","","-","","-","","-","","-"
"OC(=O)CC1=CC=C(S1)C(=O)CCl","-","-","-","2-[5-(2-Chloroacetyl)-2-thienyl]acetic acid","101.0 - 104.0","?C","375.5","K","","","","","","-","","-","","-","","-"
"CC(=O)C1=CC=C2OCCC2=C1","-","-","-","1-(2,3-Dihydrobenzo[b]furan-5-yl)ethan-1-one","62.0 - 64.0","?C","336.0","K","","","","","","-","","-","","-","","-"
"CC(=O)N1CCSC1C(=O)NN","-","-","-","3-Acetyl-1,3-thiazolane-2-carbohydrazide","193.0 - 196.0","?C","467.5","K","","","","","","-","","-","","-","","-"
"CCOC(=O)C1=CNC(S)=N1","-","-","-","Ethyl 2-mercapto-1H-imidazole-4-carboxylate","191.0 - 193.0","?C","465.0","K","","","","","","-","","-","","-","","-"
"OC(=O)C1=CC=C(CSC2=NC=C(C=C2)C(F)(F)F)O1","-","-","-","5-({[5-(Trifluoromethyl)-2-pyridyl]thio}methyl)-2-furoic acid","176.0 - 178.0","?C","450.0","K","","","","","","-","","-","","-","","-"
"CC1=C(C=CO1)C(=O)CC#N","-","-","-","3-(2-Methyl-3-furyl)-3-oxopropanenitrile","95.0 - 97.0","?C","369.0","K","","","","","","-","","-","","-","","-"
"[O-][N+](=O)C1=CC(F)=CC=C1C#N","-","-","-","4-Fluoro-2-nitrobenzonitrile","71.0 - 73.0","?C","345.0","K","","","","","","-","","-","","-","","-"
"COC(=O)C1=CC(CN2N=C(C)C(Br)=C2C)=CC=C1","-","-","-","Methyl 3-[(4-bromo-3,5-dimethyl-1H-pyrazol-1-yl)methyl]benzoate","105.0 - 107.0","?C","379.0","K","","","","","","-","","-","","-","","-"
"CC1=NN(CC2=CC=CC(=C2)C(O)=O)C(C)=C1Br","-","-","-","3-[(4-Bromo-3,5-dimethyl-1H-pyrazol-1-yl)methyl]benzoic acid","224.0 - 226.0","?C","498.0","K","","","","","","-","","-","","-","","-"
"NNC(=O)CNS(=O)(=O)C1=CC=CC2=NSN=C12","-","-","-","N4-(2-Hydrazino-2-oxoethyl)-2,1,3-benzothiadiazole-4-sulfonamide","151.0 - 153.0","?C","425.0","K","","","","","","-","","-","","-","","-"
"ClC1=CC(Cl)=C(C=C1)S(=O)(=O)CC#N","-","-","-","2-[(2,4-Dichlorophenyl)sulfonyl]acetonitrile","118.0 - 121.0","?C","392.5","K","","","","","","-","","-","","-","","-"
"CSC1=CC=C(OC2=C(C#N)C(F)=CC=C2)C=C1","-","-","-","2-Fluoro-6-[4-(methylthio)phenoxy]benzonitrile","68.0 - 71.0","?C","342.5","K","","","","","","-","","-","","-","","-"
"CC(C)(OC1=CC=C(C=C1)C#N)C#C","-","-","-","4-[(1,1-Dimethylprop-2-ynyl)oxy]benzonitrile","30.0 - 32.0","?C","304.0","K","","","","","","-","","-","","-","","-"
"[O-][N+](=O)C1=C(Cl)C=CC2=NSN=C12","-","-","-","5-Chloro-4-nitro-2,1,3-benzothiadiazole","149.0 - 152.0","?C","423.5","K","","","","","","-","","-","","-","","-"
"OC(=O)CSCCOC1=CC=CC=C1","-","-","-","2-[(2-Phenoxyethyl)thio]acetic acid","49.0 - 52.0","?C","323.5","K","","","","","","-","","-","","-","","-"
"COC1=C(OC)C=C(C=C1)C(C)=NO","-","-","-","1-(3,4-Dimethoxyphenyl)ethan-1-one oxime","147.0 - 150.0","?C","421.5","K","","","","","","-","","-","","-","","-"
"ClC1=CC2=NON=C2C=C1","-","-","-","5-Chloro-2,1,3-benzoxadiazole","37.0 - 40.0","?C","311.5","K","","","","","","-","","-","","-","","-"
"N#CC1=CC2=NON=C2C=C1","-","-","-","2,1,3-Benzoxadiazole-5-carbonitrile","86.0 - 88.0","?C","360.0","K","","","","","","-","","-","","-","","-"
"CC(=NOCC1=CC(=CC=C1)C(O)=O)C1=CC(Cl)=C(Cl)C=C1","-","-","-","3-[({[1-(3,4-Dichlorophenyl)ethylidene]amino}oxy)methyl]benzoic acid","175.0 - 178.0","?C","449.5","K","","","","","","-","","-","","-","","-"
"CC(=NOCC1=CC(=CC=C1)C(O)=O)C1=CC=C(Cl)C=C1","-","-","-","3-[({[1-(4-Chlorophenyl)ethylidene]amino}oxy)methyl]benzoic acid","154.0 - 157.0","?C","428.5","K","","","","","","-","","-","","-","","-"
"CCOC(=O)C1=CSC(=N1)C1COC2=CC=CC=C2O1","-","-","-","Ethyl 2-(2,3-dihydro-1,4-benzodioxin-2-yl)-1,3-thiazole-4-carboxylate","66.5 - 69.8","?C","341.1","K","","","","","","-","","-","","-","","-"
"CSC1=NC2=C(S1)C=C(C=C2)[N+]([O-])=O","-","-","-","2-(Methylthio)-6-nitro-1,3-benzothiazole","134.0 - 136.0","?C","408.0","K","","","","","","-","","-","","-","","-"
"NC(=S)C1=CC2=NON=C2C=C1","-","-","-","2,1,3-Benzoxadiazole-5-carbothioamide","132.0 - 135.0","?C","406.5","K","","","","","","-","","-","","-","","-"
"CCOC(=O)CC1SC2=CC=CC=C2NC1=S","-","-","-","Ethyl 2-(3-thioxo-3,4-dihydro-2H-1,4-benzothiazin-2-yl)acetate","106.0 - 108.0","?C","380.0","K","","","","","","-","","-","","-","","-"
"OC(=O)C=C1OC(=O)C2=CC=CC=C12","-","-","-","2-(3-Oxo-1,3-dihydroisobenzofuran-1-yliden)acetic acid","287.0 - 290.0","?C","561.5","K","","","","","","-","","-","","-","","-"
"CSC1=NC2=CC=C(N)C=C2S1","-","-","-","2-(Methylthio)-1,3-benzothiazol-6-amine","105.0 - 107.0","?C","379.0","K","","","","","","-","","-","","-","","-"
"OC(=O)CC1=NNC(=O)C2=CC=CC=C12","-","-","-","2-(4-Oxo-3,4-dihydrophthalazin-1-yl)acetic acid","220.0 - 223.0","?C","494.5","K","","","","","","-","","-","","-","","-"
"CCOC(=O)CC1=NN(CC(N)=S)C(=O)C2=CC=CC=C12","-","-","-","Ethyl 2-[3-(2-amino-2-thioxoethyl)-4-oxo-3,4-dihydrophthalazin-1-yl]acetate","150.0 - 152.0","?C","424.0","K","","","","","","-","","-","","-","","-"
"FC(F)(F)C1=NC2=C(C=C(CBr)C=C2)C(Cl)=C1","-","-","-","6-(Bromomethyl)-4-chloro-2-(trifluoromethyl)quinoline","119.0 - 123.0","?C","394.0","K","","","","","","-","","-","","-","","-"
"OC1=CC(=NC2=C1C(Cl)=CC(Cl)=C2)C(F)(F)F","-","-","-","5,7-Dichloro-2-(trifluoromethyl)quinolin-4-ol","230.0","?C","503.0","K","","","","","","-","","-","","-","","-"
"FC(F)(F)C1=NC2=C(C(Cl)=CC(Cl)=C2)C(Cl)=C1","-","-","-","4,5,7-Trichloro-2-(trifluoromethyl)quinoline","111.0 - 114.0","?C","385.5","K","","","","","","-","","-","","-","","-"
"CC1=NN(CC2=CC=C(O2)C(O)=O)C(C)=C1Br","-","-","-","5-[(4-Bromo-3,5-dimethyl-1H-pyrazol-1-yl)methyl]-2-furoic acid","207.0 - 208.0","?C","480.5","K","","","","","","-","","-","","-","","-"
"COC(=O)CSC1=CC(=NC2=CC=CC=C12)C(F)(F)F","-","-","-","Methyl 2-[[2-(trifluoromethyl)-4-quinolyl]thio]acetate","96.0 - 98.0","?C","370.0","K","","","","","","-","","-","","-","","-"
"COC(=O)C1=CSC(=C1OC)S(Cl)(=O)=O","-","-","-","Methyl 5-chlorosulfonyl-4-methoxythiophene-3-carboxylate","93.0 - 96.0","?C","367.5","K","","","","","","-","","-","","-","","-"
"CSC1=NN(C=C1C#N)C1=CC=CC=C1","-","-","-","3-(Methylthio)-1-phenyl-1H-pyrazole-4-carbonitrile","106.0 - 108.0","?C","380.0","K","","","","","","-","","-","","-","","-"
"CC(C)N1C=C(C#N)C(=O)N(CC2=CC=CC=C2)C1=O","-","-","-","3-Benzyl-1-isopropyl-2,4-dioxo-1,2,3,4-tetrahydropyrimidine-5-carbonitrile","151.0 - 154.0","?C","425.5","K","","","","","","-","","-","","-","","-"
"CC(C)N1C=C(C(N)=S)C(=O)N(CC2=CC=CC=C2)C1=O","-","-","-","3-Benzyl-1-isopropyl-2,4-dioxo-1,2,3,4-tetrahydropyrimidine-5-carbothioamide","173.0 - 175.0","?C","447.0","K","","","","","","-","","-","","-","","-"
"CC(C)N1C=C(C2=NC(C)=CS2)C(=O)N(CC(=O)NN)C1=O","-","-","-","2-[3-Isopropyl-5-(4-methyl-1,3-thiazol-2-yl)-2,6-dioxo-1,2,3,6-tetrahydropyrimidin-1-yl]ethanohydrazide","260.0 - 263.0","?C","534.5","K","","","","","","-","","-","","-","","-"
"CN1CCN(C)C(C1)C(=O)NN","-","-","-","1,4-Dimethylpiperazine-2-carbohydrazide","113.0","?C","386.0","K","","","","","","-","","-","","-","","-"
"OCC1=NC=CN1CC1=CC=CC=C1","-","-","-","(1-Benzyl-1H-imidazol-2-yl)methanol","94.0 - 97.0","?C","368.5","K","","","","","","-","","-","","-","","-"
"CC1=C(Cl)C=C(C=C1Cl)[N+]([O-])=O","-","-","-","1,3-Dichloro-2-methyl-5-nitrobenzene","63.0 - 64.0","?C","336.5","K","","","","","","-","","-","","-","","-"
"O=CC1=CC(=CS1)C#CC1=CC=CC=C1","-","-","-","4-(2-Phenyleth-1-ynyl)thiophene-2-carbaldehyde","115.0 - 118.0","?C","389.5","K","","","","","","-","","-","","-","","-"
"O=CC1=CC=C(S1)C#CC1=CC=CC=C1","-","-","-","5-(2-Phenyleth-1-ynyl)thiophene-2-carbaldehyde","91.0","?C","364.0","K","","","","","","-","","-","","-","","-"
"CN1C(=O)N(C=C(C(N)=S)C1=O)C1=CC=CC=C1","-","-","-","3-Methyl-2,4-dioxo-1-phenyl-1,2,3,4-tetrahydropyrimidine-5-carbothioamide","229.0 - 232.0","?C","503.5","K","","","","","","-","","-","","-","","-"
"CN1C(=O)N(C=C(C(N)=NO)C1=O)C1=CC=CC=C1","-","-","-","N'-Hydroxy-3-methyl-2,4-dioxo-1-phenyl-1,2,3,4-tetrahydropyrimidine-5-carboximidamide","189.0 - 191.0","?C","463.0","K","","","","","","-","","-","","-","","-"
"CC1=C(C2=C(C=C1)N=C(C=C2Cl)C(F)(F)F)[N+]([O-])=O","-","-","-","4-Chloro-6-methyl-5-nitro-2-(trifluoromethyl)quinoline","119.0 - 121.0","?C","393.0","K","","","","","","-","","-","","-","","-"
"CC(=O)N1CCC2=CC(Br)=CC=C12","-","-","-","1-(5-Bromo-2,3-dihydro-1H-indol-1-yl)ethan-1-one","124.0 - 127.0","?C","398.5","K","","","","","","-","","-","","-","","-"
"NC(=O)CCOC1CCN(CC2=CC=CC=C2)CC1","-","-","-","3-[(1-Benzyl-4-piperidyl)oxy]propanamide","73.0 - 75.0","?C","347.0","K","","","","","","-","","-","","-","","-"
"OC(=O)C1=CC(=CN=C1)C#CC1=CC=CC=C1","-","-","-","5-(2-Phenyleth-1-ynyl)nicotinic acid","245.0 - 247.0","?C","519.0","K","","","","","","-","","-","","-","","-"
"OCCSC1CS(=O)(=O)C2=CC(=CC=C12)[N+]([O-])=O","-","-","-","3-[(2-Hydroxyethyl)thio]-6-nitro-2,3-dihydro-1H-1lambda6-benzo[b]thiophene-1,1-dio","127.0 - 129.0","?C","401.0","K","","","","","","-","","-","","-","","-"
"CSC1=NN(C=C1C(N)=S)C1=CC=CC=C1","-","-","-","3-(Methylthio)-1-phenyl-1H-pyrazole-4-carbothioamide","130.0 - 133.0","?C","404.5","K","","","","","","-","","-","","-","","-"
"CC(C)(C)OC(=O)C1=CC(N)=CC=C1","-","-","-","tert-Butyl 3-aminobenzoate","81.0 - 83.0","?C","355.0","K","","","","","","-","","-","","-","","-"
"ON=CC1=C(OC2=CC=CC=C2)C=CS1","-","-","-","3-Phenoxythiophene-2-carbaldehyde oxime","105.0 - 106.0","?C","378.5","K","","","","","","-","","-","","-","","-"
"NC(CS(=O)(=O)C1=CC=C(F)C=C1)=NO","-","-","-","2-[(4-Fluorophenyl)sulfonyl]-N'-hydroxyethanimidamide","180.0 - 183.0","?C","454.5","K","","","","","","-","","-","","-","","-"
"OC(=O)C1=CC=C(O1)C#CC1=CC=CC=C1","-","-","-","5-(2-Phenyleth-1-ynyl)-2-furoic acid","212.0 - 213.0","?C","485.5","K","","","","","","-","","-","","-","","-"
"CC1=C(C=C(C=C1)S(Cl)(=O)=O)[N+]([O-])=O","-","-","-","4-Methyl-3-nitrobenzene-1-sulfonyl chloride","38.0 - 40.0","?C","312.0","K","","","","","","-","","-","","-","","-"
"NNC(=O)CC1=NC(=NO1)C1=NC=CN=C1","-","-","-","2-(3-Pyrazin-2-yl-1,2,4-oxadiazol-5-yl)ethanohydrazide","184.0 - 186.0","?C","458.0","K","","","","","","-","","-","","-","","-"
"ClC1=C(C2=NON=C2C=C1)S(Cl)(=O)=O","-","-","-","5-Chloro-2,1,3-benzoxadiazole-4-sulfonyl chloride","73.0 - 75.0","?C","347.0","K","","","","","","-","","-","","-","","-"
"OC1CN(C1)C(C1=CC=CC=C1)C1=CC=CC=C1","-","-","-","1-Benzhydrylazetan-3-ol","106.0 - 111.0","?C","381.5","K","","","","","","-","","-","","-","","-"
"CCOC(=O)C1=C(Cl)C2=CC(Cl)=CC=C2N=C1SC","-","-","-","Ethyl 4,6-dichloro-2-(methylthio)quinoline-3-carboxylate","134.0 - 137.0","?C","408.5","K","","","","","","-","","-","","-","","-"
"N#CC1CN(C1)C(C1=CC=CC=C1)C1=CC=CC=C1","-","-","-","1-Benzhydrylazetane-3-carbonitrile","153.0 - 156.0","?C","427.5","K","","","","","","-","","-","","-","","-"
"ClCC(=O)N1CCN(CC1)C1=CC=CC=C1","-","-","-","2-Chloro-1-(4-phenylpiperazino)ethan-1-one","77.0 - 79.0","?C","351.0","K","","","","","","-","","-","","-","","-"
"OC(=O)C1=C(N=NC2=C1C=CC=C2)C1=CC=CC=C1","-","-","-","3-Phenylcinnoline-4-carboxylic acid","216.0","?C","489.0","K","","","","","","-","","-","","-","","-"
"COC1=C(OC2CCCC2)C=C(C=C1)C(O)=O","-","-","-","3-(Cyclopentyloxy)-4-methoxybenzoic acid","164.0 - 166.0","?C","438.0","K","","","","","","-","","-","","-","","-"
"CCOC(=O)C1=CC2=C(N1)C=CC(OC(F)(F)F)=C2","-","-","-","Ethyl 5-(trifluoromethoxy)-1H-indole-2-carboxylate","144.0 - 145.0","?C","417.5","K","","","","","","-","","-","","-","","-"
"ON=C1CCCC2=CC=CC=C12","-","-","-","1,2,3,4-Tetrahydronaphthalen-1-one oxime","103.0 - 105.0","?C","377.0","K","","","","","","-","","-","","-","","-"
"OC(=O)C1=CC2=CC(OC(F)(F)F)=CC=C2N1","-","-","-","5-(Trifluoromethoxy)-1H-indole-2-carboxylic acid","204.0 - 207.0","?C","478.5","K","","","","","","-","","-","","-","","-"
"CCOC(=O)C1=C(O)C2=C(C=CC(OC(F)(F)F)=C2)N=C1","-","-","-","Ethyl 4-hydroxy-6-(trifluoromethoxy)quinoline-3-carboxylate","297.0 - 305.0","?C","574.0","K","","","","","","-","","-","","-","","-"
"OC(=O)C1=C(O)C2=CC(OC(F)(F)F)=CC=C2N=C1","-","-","-","4-Hydroxy-6-(trifluoromethoxy)quinoline-3-carboxylic acid","245.0","?C","518.0","K","","","","","","-","","-","","-","","-"
"COC(=O)C1=CC(C)=C(C)C=C1","-","-","-","Methyl 3,4-dimethylbenzoate","36.0 - 38.0","?C","310.0","K","","","","","","-","","-","","-","","-"
"OC1(CN2CCC1CC2)C#N","-","-","-","3-Hydroxyquinuclidine-3-carbonitrile","156.0 - 159.0","?C","430.5","K","","","","","","-","","-","","-","","-"
"CCCCC#CC1=CN=CC(=C1)C(=O)NN","-","-","-","5-Hex-1-ynylpyridine-3-carbohydrazide","158.0 - 161.0","?C","432.5","K","","","","","","-","","-","","-","","-"
"CC1=C2N=C(C=C(O)C2=CC=C1)C(F)(F)F","-","-","-","8-Methyl-2-(trifluoromethyl)quinolin-4-ol","128.0 - 131.0","?C","402.5","K","","","","","","-","","-","","-","","-"
"OC1=CC(=NC2=CC=C(C=C12)C(F)(F)F)C(F)(F)F","-","-","-","2,6-Di(trifluoromethyl)quinolin-4-ol","274.0 - 277.0","?C","548.5","K","","","","","","-","","-","","-","","-"
"FC1=CC=C2N=C(C=C(Cl)C2=C1)C(F)(F)F","-","-","-","4-Chloro-6-fluoro-2-(trifluoromethyl)quinoline","78.0 - 82.0","?C","353.0","K","","","","","","-","","-","","-","","-"
"NC(CCN(CC1=CC=CO1)S(=O)(=O)C1=CC=C(Cl)C=C1)=NO","-","-","-","3-[[(4-Chlorophenyl)sulfonyl](2-furylmethyl)amino]-N'-hydroxypropanimidamide","115.0 - 117.0","?C","389.0","K","","","","","","-","","-","","-","","-"
"FC(F)(F)C1=CC(=NO1)C1=CC=C(S1)S(Cl)(=O)=O","-","-","-","5-[5-(Trifluoromethyl)isoxazol-3-yl]thiophene-2-sulfonyl chloride","106.0 - 107.0","?C","379.5","K","","","","","","-","","-","","-","","-"
"CCCCOC1=CC(=CC=C1OC)C(O)=O","-","-","-","3-Butoxy-4-methoxybenzoic acid","142.0 - 144.0","?C","416.0","K","","","","","","-","","-","","-","","-"
"CCCCOC1=C(OC)C=CC(=C1)C(N)=O","-","-","-","3-Butoxy-4-methoxybenzamide","150.0 - 152.0","?C","424.0","K","","","","","","-","","-","","-","","-"
"NC1=C(NC2CCN(CC3=CC=CC=C3)CC2)C=CC=C1","-","-","-","N1-(1-Benzyl-4-piperidyl)benzene-1,2-diamine","111.0 - 112.0","?C","384.5","K","","","","","","-","","-","","-","","-"
"OC(=O)C1CN(C1)C(C1=CC=CC=C1)C1=CC=CC=C1","-","-","-","1-Benzhydrylazetane-3-carboxylic acid","178.0 - 180.0","?C","452.0","K","","","","","","-","","-","","-","","-"
"ClCCOCCN1C(=O)C2=CC=CC=C2C1=O","-","-","-","2-[2-(2-Chloroethoxy)ethyl]-1H-isoindole-1,3(2H)-dione","72.0 - 73.0","?C","345.5","K","","","","","","-","","-","","-","","-"