"SMILES","CASRN","EXTERNALID","N","NAME","Melting Point","UNIT {Melting Point}","Melting Point {measured, converted}","UNIT {Melting Point}","Dataset","comment (property)","comment (chemical)","measurement method","Pressure","UNIT {Pressure}","Som set numeric condition","UNIT {Som set numeric condition}","Resp set numeric condition","UNIT {Resp set numeric condition}","Quality code","UNIT {Quality code}"
"CC(=NO)C1=CC=C(F)C=C1","-","-","-","4-Fluoroacetophenone oxime","72.0 - 74.0","?C","346.0","K","","","","","","-","","-","","-","","-"
"O=C1C2=CC=CC=C2C(=O)C2=C1C=CC=C2NC1=CC=CC2=C1C(=O)C1=C(C=CC=C1)C2=O","-","-","-","1,1'-Dianthrimide","300.0","?C","573.0","K","","","","","","-","","-","","-","","-"
"BrC1=C2N=CC=CC2=CC=C1","-","-","-","8-Bromoquinoline","58.0 - 59.0","?C","331.5","K","","","","","","-","","-","","-","","-"
"OC(=O)CC(C(CC(O)=O)C(O)=O)C(O)=O","-","-","-","1,2,3,4-BUTANETETRACARBOXYLIC ACID","195.0 - 197.0","?C","469.0","K","","","","","","-","","-","","-","","-"
"COC(=O)C1=CC=C(N)N=C1","-","-","-","6-Aminonicotinic acid methyl ester","159.0 - 160.0","?C","432.5","K","","","","","","-","","-","","-","","-"
"CN1C(=O)NC(=O)C(N=O)=C1N","-","-","-","6-Amino-1-methyl-5-nitrosouracil","300.0","?C","573.0","K","","","","","","-","","-","","-","","-"
"CN1C(=O)NC(=O)C=C1N","-","-","-","6-Amino-1-methyluracil","300.0","?C","573.0","K","","","","","","-","","-","","-","","-"
"NC(C(O)C1=CC=CC=C1)C1=CC=CC=C1","-","-","-","(1S,2R)-2-Amino-1,2-diphenylethanol","142.0 - 144.0","?C","416.0","K","","","","","","-","","-","","-","","-"
"ClC1=CC2=C(NC(=O)C2)C=C1","-","-","-","5-Chlorooxindole","194.0 - 197.0","?C","468.5","K","","","","","","-","","-","","-","","-"
"ClC(=O)C1=NC2=C(C=CC=C2)N=C1","-","-","-","2-Quinoxaloyl chloride","100.0","?C","373.0","K","","","","","","-","","-","","-","","-"
"OC(=O)C1=NC2=C(C=CC=C2)N=C1","-","-","-","2-Quinoxalinecarboxylic acid","206.0","?C","479.0","K","","","","","","-","","-","","-","","-"
"NC1=NC=C(Br)C=N1","-","-","-","2-Amino-5-bromopyrimidine","239.0 - 244.0","?C","514.5","K","","","","","","-","","-","","-","","-"
"CC1=CC(N)=NN1","-","-","-","3-Amino-5-methylpyrazole","41.0 - 43.0","?C","315.0","K","","","","","","-","","-","","-","","-"
"CCOC(=O)C(=O)C=P(C1=CC=CC=C1)(C1=CC=CC=C1)C1=CC=CC=C1","-","-","-","Ethyl (triphenylphosphoranylidene)pyruvate","176.0","?C","449.0","K","","","","","","-","","-","","-","","-"
"CC(C)(C)OC(=O)NC(CC1=C(Cl)C=C(Cl)C=C1)C(O)=O","-","-","-","(S)-Boc-2,4-Dichlorophenylalanine","132.0","?C","405.0","K","","","","","","-","","-","","-","","-"
"CC(=O)NC1=CC(C(O)=O)=C(Br)C=C1","-","-","-","5-Acetamido-2-bromobenzoic acid","186.0 - 188.0","?C","460.0","K","","","","","","-","","-","","-","","-"
"CC(=O)C1=CC=C(S1)C1=CC=CS1","-","-","-","5-Acetyl-2,2'-bithienyl","109.0 - 114.0","?C","384.5","K","","","","","","-","","-","","-","","-"
"OC1=CC=C(O)C(C=NCCN=CC2=CC(O)=CC=C2O)=C1","-","-","-","N,N-Bis(2,5-dihydroxybenzylidene)ethylenediamine","125.0 - 127.0","?C","399.0","K","","","","","","-","","-","","-","","-"
"OC1=CC(O)=C(C=NC2=C(C=CC=C2)N=CC2=CC=C(O)C=C2O)C=C1","-","-","-","N,N-Bis(2,5-dihydroxybenzylidene)-1,2-diaminobenzene","163.0 - 165.0","?C","437.0","K","","","","","","-","","-","","-","","-"
"CC1=CC=C(S1)C1=CC=C(C)S1","-","-","-","5,5'-Dimethyl-2,2'-bithiophene","65.0 - 68.0","?C","339.5","K","","","","","","-","","-","","-","","-"
"FC1=CC=C(C=C1)C1=CC2=C(N1)C=CC=C2","-","-","-","2-(4-fluorophenyl)-1H-indole","190.0 - 192.0","?C","464.0","K","","","","","","-","","-","","-","","-"
"CC(C)(C)OC(=O)NC(=O)OC(C)(C)C","-","-","-","Di-tert-butyl iminodicarboxylate","114.0 - 117.0","?C","388.5","K","","","","","","-","","-","","-","","-"
"BrCC1=CC=C(C=C1)C1=CC=CC=C1","-","-","-","4-(Bromomethyl)biphenyl","86.0 - 87.0","?C","359.5","K","","","","","","-","","-","","-","","-"
"C1OC(=NC1C1=CC=CC=C1)C1=CC=CC(=N1)C1=NC(CO1)C1=CC=CC=C1","-","-","-","2,6-Bis[(4R)-phenyl-2-oxazolin-2-yl]pyridine","171.0 - 175.0","?C","446.0","K","","","","","","-","","-","","-","","-"
"O=C(C1=CC=CC=N1)C1=NC=CC=C1","-","-","-","di-2-Pyridyl ketone","53.0 - 55.0","?C","327.0","K","","","","","","-","","-","","-","","-"
"CCCC(=O)OC1=CNC2=C1C=C(Br)C(Cl)=C2","-","-","-","5-Bromo-6-chloro-3-indoxyl butyrate","96.0 - 100.0","?C","371.0","K","","","","","","-","","-","","-","","-"
"FC1=C2C(=O)OC(=O)C2=C(F)C=C1","-","-","-","3,6-Difluorophthalic anhydride","217.0 - 221.0","?C","492.0","K","","","","","","-","","-","","-","","-"
"CN(C(=O)OC(C)(C)C)C(C)(C)C(O)=O","-","-","-","N-Boc-N,2-Dimethylalanine","153.0 - 157.0","?C","428.0","K","","","","","","-","","-","","-","","-"
"OC(=O)C1CNC1","-","-","-","3-Azetidinecarboxylic acid","250.0 - 292.0","?C","544.0","K","","","","","","-","","-","","-","","-"
"CCCCCCCCCCCC(=O)N(C)CC(O)=O","-","-","-","N-LAUROYLSARCOSINE","44.0 - 48.0","?C","319.0","K","","","","","","-","","-","","-","","-"
"CC1=CC=C2OC=C(C=O)C(=O)C2=C1","-","-","-","3-Formyl-6-methylchromone","169.0 - 174.0","?C","444.5","K","","","","","","-","","-","","-","","-"
"CC1=C(C)C=C2C(=O)C(=COC2=C1)C#N","-","-","-","3-Cyano-6,7-dimethylchromone","206.0 - 210.0","?C","481.0","K","","","","","","-","","-","","-","","-"
"NC1=C(C=O)C(=O)C2=CC(Cl)=CC=C2O1","-","-","-","2-Amino-6-chloro-3-formylchromone","300.0","?C","573.0","K","","","","","","-","","-","","-","","-"
"OC(=O)CNC1=C(C=C(Br)C=C1)C(O)=O","-","-","-","5-Bromo-N-(carboxymethyl)anthranilic acid","211.0 - 215.0","?C","486.0","K","","","","","","-","","-","","-","","-"
"OCC1OC=CC(O)C1O","-","-","-","d-Galactal","99.0 - 103.0","?C","374.0","K","","","","","","-","","-","","-","","-"
"CC(C)(C)OC(=O)C=P(C1=CC=CC=C1)(C1=CC=CC=C1)C1=CC=CC=C1","-","-","-","(tert-Butoxycarbonylmethylene)triphenylphosphorane","146.0 - 151.0","?C","421.5","K","","","","","","-","","-","","-","","-"
"ClC(=O)C1=CC=C2OCOC2=C1","-","-","-","1,3-Benzodioxole-5-carbonyl chloride","80.0 - 81.0","?C","353.5","K","","","","","","-","","-","","-","","-"
"CC(C)(C)C1=NC2=C(N1)C=CC=C2","-","-","-","2-tert-Butylbenzimidazole","320.0","?C","593.0","K","","","","","","-","","-","","-","","-"
"NS(=O)(=O)C1=CC(Br)=CC=C1","-","-","-","3-Bromobenzenesulfonamide","155.0 - 158.0","?C","429.5","K","","","","","","-","","-","","-","","-"
"OC(=O)CN1C=C(Cl)C(=O)C(Cl)=C1","-","-","-","3,5-Dichloro-4-pyridone-1-acetic acid","259.0 - 263.0","?C","534.0","K","","","","","","-","","-","","-","","-"
"COC1=CC=C(SSC2=CC=C(OC)C=C2)C=C1","-","-","-","Bis(4-methoxyphenyl)disulfide","40.0 - 42.0","?C","314.0","K","","","","","","-","","-","","-","","-"
"CCC(C)C(NC(=O)OCC1=CC=CC=C1)C(O)=O","-","-","-","N-Carbobenzyloxy-L-isoleucine","52.0 - 54.0","?C","326.0","K","","","","","","-","","-","","-","","-"
"ClC1=NC=NC2=C1C(=CS2)C1=CC=CS1","-","-","-","4-Chloro-5-(2-thienyl)thieno[2,3-d]pyrimidine","110.0 - 112.0","?C","384.0","K","","","","","","-","","-","","-","","-"
"C1CNCCN(C1)C1=NC(=NS1)C1=CC=CC=C1","-","-","-","5-(1,4-Diazepan-1-yl)-3-phenyl-1,2,4-thiadiazole","82.0 - 83.0","?C","355.5","K","","","","","","-","","-","","-","","-"
"CC(C)(C)OC(=O)NCCNC1=CC=C(C=C1N)C(F)(F)F","-","-","-","tert-Butyl N-{2-[2-amino-4-(trifluoromethyl)anilino]ethyl}carbamate","129.0 - 132.0","?C","403.5","K","","","","","","-","","-","","-","","-"
"CC(C)(C)OC(=O)N1CCN(CCO)CC1","-","-","-","tert-Butyl 4-(2-hydroxyethyl)piperazine-1-carboxylate","39.0 - 43.0","?C","314.0","K","","","","","","-","","-","","-","","-"
"FC(F)(F)C1=NC(=NC=C1)N1CCCNCC1","-","-","-","1-[4-(Trifluoromethyl)pyrimidin-2-yl]-1,4-diazepane","50.0 - 51.0","?C","323.5","K","","","","","","-","","-","","-","","-"
"[O-][N+](=O)C1=CC=C(N=C1)N1CCCNCC1","-","-","-","1-(5-Nitro-2-pyridyl)-1,4-diazepane","111.0 - 112.0","?C","384.5","K","","","","","","-","","-","","-","","-"
"CCOC(=O)C1=C(N)SC(C)=C1C1=CC=CC=C1","-","-","-","Ethyl 2-amino-5-methyl-4-phenylthiophene-3-carboxylate","92.0 - 93.0","?C","365.5","K","","","","","","-","","-","","-","","-"
"COC1=C(OCC2=C(F)C=CC=C2Cl)C=CC(C=O)=C1","-","-","-","4-[(2-Chloro-6-fluorobenzyl)oxy]-3-methoxybenzaldehyde","124.0 - 126.0","?C","398.0","K","","","","","","-","","-","","-","","-"
"CC1=C(SC2=C1C(O)=NC=N2)C1=CC=CC=C1","-","-","-","5-Methyl-6-phenylthieno[2,3-d]pyrimidin-4-ol","247.0 - 249.0","?C","521.0","K","","","","","","-","","-","","-","","-"
"CC1=C(SC2=C1C(Cl)=NC=N2)C1=CC=CC=C1","-","-","-","4-Chloro-5-methyl-6-phenylthieno[2,3-d]pyrimidine","133.0 - 135.0","?C","407.0","K","","","","","","-","","-","","-","","-"
"NC(=O)C1CCN(CC1)C1=NC(=CC=N1)C(F)(F)F","-","-","-","1-[4-(Trifluoromethyl)-2-pyrimidinyl]-4-piperidinecarboxamide","194.0 - 196.0","?C","468.0","K","","","","","","-","","-","","-","","-"
"NC1=C(C=C(O1)C1=CC=CC=C1)C#N","-","-","-","2-Amino-5-phenyl-3-furonitrile","196.0 - 197.0","?C","469.5","K","","","","","","-","","-","","-","","-"
"CCOC(=O)C(CCC(O)=O)(CCC(O)=O)C(C)=O","-","-","-","4-Acetyl-4-(ethoxycarbonyl)heptanedioic acid","105.0 - 108.0","?C","379.5","K","","","","","","-","","-","","-","","-"
"COC1=CC=C(NC2CCN(CC2)C(=O)OC(C)(C)C)C=C1","-","-","-","tert-Butyl 4-(4-methoxyanilino)tetrahydro-1(2H)-pyridinecarboxylate","82.0 - 84.0","?C","356.0","K","","","","","","-","","-","","-","","-"
"CC1=C(SC(=N1)C1=CC=CC=C1)C(Cl)=O","-","-","-","4-Methyl-2-phenyl-1,3-thiazole-5-carbonyl chloride","122.0 - 124.0","?C","396.0","K","","","","","","-","","-","","-","","-"
"NC1=C(C#N)C(=NN1)C1=CC=C(Cl)C=C1","-","-","-","5-Amino-3-(4-chlorophenyl)-1H-pyrazole-4-carbonitrile","216.0 - 217.0","?C","489.5","K","","","","","","-","","-","","-","","-"
"CC(C)(C)OC(=O)NC1=CC=CS1","-","-","-","tert-Butyl N-(2-thienyl)carbamate","151.0 - 152.0","?C","424.5","K","","","","","","-","","-","","-","","-"
"NC(=O)C1=CC2=C(OCO2)C=C1","-","-","-","1,3-Benzodioxole-5-carboxamide","167.0 - 169.0","?C","441.0","K","","","","","","-","","-","","-","","-"
"ClC1=CC=C2SC=C(C#N)C2=C1","-","-","-","5-Chloro-1-benzothiophene-3-carbonitrile","121.0 - 122.0","?C","394.5","K","","","","","","-","","-","","-","","-"
"NC(=S)C1=CC2=C(OCO2)C=C1","-","-","-","1,3-Benzodioxole-5-carbothioamide","183.0 - 186.0","?C","457.5","K","","","","","","-","","-","","-","","-"
"NC(=S)C1=CC=C(S1)C1=NC=CC=C1","-","-","-","5-(2-Pyridinyl)-2-thiophenecarbothioamide","198.0 - 200.0","?C","472.0","K","","","","","","-","","-","","-","","-"
"CC1=C(C=NN1C1=CC=C(F)C=C1)C(O)=O","-","-","-","1-(4-Fluorophenyl)-5-methyl-1H-pyrazole-4-carboxylic acid","165.0 - 166.0","?C","438.5","K","","","","","","-","","-","","-","","-"
"CC1=C(C=NN1C1=CC=C(Cl)C=C1)C(Cl)=O","-","-","-","1-(4-Chlorophenyl)-5-methyl-1H-pyrazole-4-carbonyl chloride","115.0","?C","388.0","K","","","","","","-","","-","","-","","-"
"CC(C)(C)OC(=O)NC1=CSC=C1","-","-","-","tert-Butyl N-(3-thienyl)carbamate","138.0 - 140.0","?C","412.0","K","","","","","","-","","-","","-","","-"
"COC1=CC=C(C=C1)N1N=CC(C(O)=O)=C1C","-","-","-","1-(4-Methoxyphenyl)-5-methyl-1H-pyrazole-4-carboxylic acid","212.0 - 213.0","?C","485.5","K","","","","","","-","","-","","-","","-"
"CC(C)(C)OC(=O)NC1=CC=CO1","-","-","-","tert-Butyl N-(2-furyl)carbamate","98.0 - 100.0","?C","372.0","K","","","","","","-","","-","","-","","-"
"CC1=C(C=NN1C1=CC=C(F)C=C1)C(Cl)=O","-","-","-","1-(4-Fluorophenyl)-5-methyl-1H-pyrazole-4-carbonyl chloride","90.0 - 92.0","?C","364.0","K","","","","","","-","","-","","-","","-"
"OCC1=CSC2=CC=C(Cl)C=C12","-","-","-","(5-Chloro-1-benzothiophen-3-yl)methanol","93.0 - 94.0","?C","366.5","K","","","","","","-","","-","","-","","-"
"COC1=CC=C(C=C1)N1N=CC(C(Cl)=O)=C1C","-","-","-","1-(4-Methoxyphenyl)-5-methyl-1H-pyrazole-4-carbonyl chloride","86.0","?C","359.0","K","","","","","","-","","-","","-","","-"
"CC1=C(N)C(C)=NO1","-","-","-","3,5-Dimethyl-4-isoxazolamine","52.0 - 54.0","?C","326.0","K","","","","","","-","","-","","-","","-"
"CCOC(=O)C1=C(N)SC=C1C1=CC=C(Br)C=C1","-","-","-","Ethyl 2-amino-4-(4-bromophenyl)-3-thiophenecarboxylate","120.0 - 122.0","?C","394.0","K","","","","","","-","","-","","-","","-"
"CC1=C(C#N)C(C)=NO1","-","-","-","3,5-Dimethyl-4-isoxazolecarbonitrile","46.0 - 48.0","?C","320.0","K","","","","","","-","","-","","-","","-"
"NC1=CC=C(Br)C=C1N","-","-","-","4-Bromo-1,2-benzenediamine","62.0 - 64.0","?C","336.0","K","","","","","","-","","-","","-","","-"
"OC(=O)C1=CC=CC2=C1OCCCO2","-","-","-","3,4-Dihydro-2H-1,5-benzodioxepine-6-carboxylic acid","68.0 - 70.0","?C","342.0","K","","","","","","-","","-","","-","","-"
"ClC(=O)C1=CC=CC2=C1OCCCO2","-","-","-","3,4-Dihydro-2H-1,5-benzodioxepine-6-carbonyl chloride","36.0 - 38.0","?C","310.0","K","","","","","","-","","-","","-","","-"
"OCC1=CC=CC2=C1OCCCO2","-","-","-","3,4-Dihydro-2H-1,5-benzodioxepin-6-ylmethanol","47.0 - 48.0","?C","320.5","K","","","","","","-","","-","","-","","-"
"NCC1=CC=CC2=C1OCCCO2","-","-","-","3,4-Dihydro-2H-1,5-benzodioxepin-6-ylmethylamine hydrochloride","148.0 - 152.0","?C","423.0","K","","","","","","-","","-","","-","","-"
"CC1=C(C(O)=O)C(=NO1)C1=CC=CC=C1","-","-","-","5-Methyl-3-phenylisoxazole-4-carboxylic acid","192.0 - 193.0","?C","465.5","K","","","","","","-","","-","","-","","-"
"CC1=C(C(Cl)=O)C(=NO1)C1=CC=CC=C1","-","-","-","5-Methyl-3-phenylisoxazole-4-carbonyl chloride","24.0 - 25.0","?C","297.5","K","","","","","","-","","-","","-","","-"
"CC1=C(C=O)C(=NO1)C1=CC=CC=C1","-","-","-","5-Methyl-3-phenyl-4-isoxazolecarbaldehyde","41.0 - 43.0","?C","315.0","K","","","","","","-","","-","","-","","-"
"CC1=C(C(=O)CBr)C(=NO1)C1=CC=CC=C1","-","-","-","2-Bromo-1-(5-methyl-3-phenylisoxazol-4-yl)ethan-1-one","46.0 - 48.0","?C","320.0","K","","","","","","-","","-","","-","","-"
"CC1=C(N=C=O)C(=NO1)C1=CC=CC=C1","-","-","-","5-Methyl-3-phenyl-4-isoxazolyl isocyanate","39.0 - 40.0","?C","312.5","K","","","","","","-","","-","","-","","-"
"CC1=C(N=C=S)C(=NO1)C1=CC=CC=C1","-","-","-","5-Methyl-3-phenyl-4-isoxazolyl isothiocyanate","73.0 - 77.0","?C","348.0","K","","","","","","-","","-","","-","","-"
"CC1=C(CBr)C(=NO1)C1=CC=CC=C1","-","-","-","4-(Bromomethyl)-5-methyl-3-phenylisoxazole","61.0 - 63.0","?C","335.0","K","","","","","","-","","-","","-","","-"
"CC1=C(CO)C(=NO1)C1=CC=CC=C1","-","-","-","(5-Methyl-3-phenyl-4-isoxazolyl)methanol","81.0 - 82.0","?C","354.5","K","","","","","","-","","-","","-","","-"
"CC1=C(I)C(=NO1)C1=CC=CC=C1","-","-","-","4-Iodo-5-methyl-3-phenylisoxazole","104.0 - 105.0","?C","377.5","K","","","","","","-","","-","","-","","-"
"CC1=C(CN)C(=NO1)C1=CC=CC=C1","-","-","-","(5-Methyl-3-phenyl-4-isoxazolyl)methylamine","66.0 - 68.0","?C","340.0","K","","","","","","-","","-","","-","","-"
"CC1=C(CO)C(C)=NO1","-","-","-","(3,5-Dimethyl-4-isoxazolyl)methanol","76.0 - 77.0","?C","349.5","K","","","","","","-","","-","","-","","-"
"CC1=CC(C(O)=O)=C(O1)C(F)(F)F","-","-","-","5-Methyl-2-(trifluoromethyl)-3-furoic acid","124.0 - 126.0","?C","398.0","K","","","","","","-","","-","","-","","-"
"OC(=O)C1=CC=C2OCCC2=C1","-","-","-","2,3-Dihydrobenzo[b]furan-5-carboxylic acid","185.0 - 188.0","?C","459.5","K","","","","","","-","","-","","-","","-"
"ClC(=O)C1=CC2=C(OCC2)C=C1","-","-","-","2,3-Dihydro-1-benzofuran-5-carbonyl chloride","49.0 - 51.0","?C","323.0","K","","","","","","-","","-","","-","","-"
"ClS(=O)(=O)C1=CC2=C(OCC2)C=C1","-","-","-","2,3-Dihydro-1-benzofuran-5-sulfonyl chloride","84.0 - 85.0","?C","357.5","K","","","","","","-","","-","","-","","-"
"O=C=NC1=CC2=C(OCC2)C=C1","-","-","-","2,3-Dihydro-1-benzofuran-5-yl isocyanate","42.0 - 43.0","?C","315.5","K","","","","","","-","","-","","-","","-"
"BrC1=CC2=C(OCC2)C=C1","-","-","-","5-Bromo-2,3-dihydro-1-benzofuran","49.0 - 50.0","?C","322.5","K","","","","","","-","","-","","-","","-"
"CC1=CC(C(O)=O)=C(C)O1","-","-","-","2,5-Dimethyl-3-furoic acid","135.0 - 139.0","?C","410.0","K","","","","","","-","","-","","-","","-"
"CC1=C(C(O)=O)C(C)=NN1","-","-","-","3,5-Dimethyl-1H-pyrazole-4-carboxylic acid","273.0 - 275.0","?C","547.0","K","","","","","","-","","-","","-","","-"
"OC(=O)C1=CC=C2OCCOC2=C1","-","-","-","2,3-Dihydro-1,4-benzodioxine-6-carboxylic acid","133.0 - 137.0","?C","408.0","K","","","","","","-","","-","","-","","-"
"ClC(=O)C1=CC2=C(OCCO2)C=C1","-","-","-","2,3-Dihydro-1,4-benzodioxine-6-carbonyl chloride","100.0 - 101.0","?C","373.5","K","","","","","","-","","-","","-","","-"
"ClS(=O)(=O)C1=CC2=C(OCCO2)C=C1","-","-","-","2,3-Dihydro-1,4-benzodioxine-6-sulfonyl chloride","66.0 - 68.0","?C","340.0","K","","","","","","-","","-","","-","","-"
"O=CC1=CC=C2OCCOC2=C1","-","-","-","2,3-Dihydro-1,4-benzodioxine-6-carbaldehyde","52.0 - 53.0","?C","325.5","K","","","","","","-","","-","","-","","-"
"BrCC(=O)C1=CC2=C(OCCO2)C=C1","-","-","-","2-Bromo-1-(2,3-dihydro-1,4-benzodioxin-6-yl)ethan-1-one","115.0 - 116.0","?C","388.5","K","","","","","","-","","-","","-","","-"
"S=C=NC1=CC2=C(OCCO2)C=C1","-","-","-","2,3-Dihydro-1,4-benzodioxin-6-yl isothiocyanate","64.0 - 66.0","?C","338.0","K","","","","","","-","","-","","-","","-"
"OC(=O)C1=C2OCCOC2=CC=C1","-","-","-","2,3-Dihydro-1,4-benzodioxine-5-carboxylic acid","189.0 - 191.0","?C","463.0","K","","","","","","-","","-","","-","","-"
"ClC(=O)C1=CC=CC2=C1OCCO2","-","-","-","2,3-Dihydro-1,4-benzodioxine-5-carbonyl chloride","98.0 - 99.0","?C","371.5","K","","","","","","-","","-","","-","","-"
"BrCC(=O)C1=CC=CC2=C1OCCO2","-","-","-","2-Bromo-1-(2,3-dihydro-1,4-benzodioxin-5-yl)-1-ethanone","71.0 - 72.0","?C","344.5","K","","","","","","-","","-","","-","","-"
"OCC1=C2OCCOC2=CC=C1","-","-","-","2,3-Dihydro-1,4-benzodioxin-5-ylmethanol","54.0 - 55.0","?C","327.5","K","","","","","","-","","-","","-","","-"
"NCC1=CC=CC2=C1OCCO2","-","-","-","2,3-Dihydro-1,4-benzodioxin-5-ylmethylamine hydrochloride","240.0 - 241.0","?C","513.5","K","","","","","","-","","-","","-","","-"
"OC(=O)C1COC2=CC=CC=C2O1","-","-","-","2,3-dihydro-1,4-benzodioxine-2-carboxylic acid","125.0 - 128.0","?C","399.5","K","","","","","","-","","-","","-","","-"
"ClC(=O)C1COC2=CC=CC=C2O1","-","-","-","2,3-Dihydro-1,4-benzodioxine-2-carbonyl chloride","56.0 - 57.0","?C","329.5","K","","","","","","-","","-","","-","","-"
"BrCC(=O)C1=CC2=C(OCO2)C=C1","-","-","-","1-(1,3-Benzodioxol-5-yl)-2-bromoethan-1-one","91.0 - 93.0","?C","365.0","K","","","","","","-","","-","","-","","-"
"BrC1=CC2=C(COCO2)C=C1","-","-","-","7-Bromo-4H-1,3-benzodioxine","49.0 - 51.0","?C","323.0","K","","","","","","-","","-","","-","","-"
"OC(=O)C1=C2OCOCC2=CC(F)=C1","-","-","-","6-Fluoro-4H-1,3-benzodioxine-8-carboxylic acid","180.0 - 182.0","?C","454.0","K","","","","","","-","","-","","-","","-"
"FC1=CC(C=O)=C2OCOCC2=C1","-","-","-","6-Fluoro-4H-1,3-benzodioxine-8-carbaldehyde","113.0 - 114.0","?C","386.5","K","","","","","","-","","-","","-","","-"
"O=C=NC1=CC2=C(SC=C2)C=C1","-","-","-","1-Benzothiophen-5-yl isocyanate","58.0","?C","331.0","K","","","","","","-","","-","","-","","-"
"N#CC1=CC(=CC=C1)N1CCOCC1","-","-","-","3-Morpholin-4-ylbenzonitrile","240.0","?C","513.0","K","","","","","","-","","-","","-","","-"
"OCC1=NNC(=C1)C1=CC=CO1","-","-","-","[5-(2-Furyl)-1H-pyrazol-3-yl]methanol","159.0","?C","432.0","K","","","","","","-","","-","","-","","-"
"NC1=CC=CC(=C1)C1=CC=NC=C1","-","-","-","3-Pyridin-4-ylaniline","167.0 - 168.0","?C","440.5","K","","","","","","-","","-","","-","","-"
"NC1=CC=CC(=C1)C1=CC=CN=C1","-","-","-","3-Pyridin-3-ylaniline","74.0 - 78.0","?C","349.0","K","","","","","","-","","-","","-","","-"
"CN1C=CC2=C1C=CC(Br)=C2","-","-","-","5-Bromo-1-methyl-1H-indole","43.0 - 44.0","?C","316.5","K","","","","","","-","","-","","-","","-"
"[O-][N+](=O)C1=C(OCCN2CCOCC2)C=CC=C1","-","-","-","4-[2-(2-Nitrophenoxy)ethyl]morpholine","44.0 - 45.0","?C","317.5","K","","","","","","-","","-","","-","","-"
"[O-][N+](=O)C1=CC=C(OCCN2CCOCC2)C=C1","-","-","-","4-[2-(4-Nitrophenoxy)ethyl]morpholine","84.0 - 86.0","?C","358.0","K","","","","","","-","","-","","-","","-"
"CCOC(=O)C1=CN2C(SC3=CC=CC=C23)=N1","-","-","-","Ethyl imidazo[2,1-b][1,3]benzothiazole-2-carboxylate","133.0 - 134.0","?C","406.5","K","","","","","","-","","-","","-","","-"
"CC(=O)N1CCC2=CC(=CC=C12)S(Cl)(=O)=O","-","-","-","1-Acetyl-5-indolinesulfonyl chloride","172.0 - 174.0","?C","446.0","K","","","","","","-","","-","","-","","-"