"SMILES","CASRN","EXTERNALID","N","NAME","Melting Point","UNIT {Melting Point}","Melting Point {measured, converted}","UNIT {Melting Point}","Dataset","comment (property)","comment (chemical)","measurement method","Pressure","UNIT {Pressure}","Som set numeric condition","UNIT {Som set numeric condition}","Resp set numeric condition","UNIT {Resp set numeric condition}","Quality code","UNIT {Quality code}"
"OCCNC(CO)(CO)CO","-","-","-","2-(2-Hydroxyethylamino)-2-(hydroxymethyl)-1,3-propanediol","89.0","?C","362.0","K","","","","","","-","","-","","-","","-"
"ON1C(=O)C2=CC=CC3=C2C(=CC=C3)C1=O","-","-","-","N-Hydroxynaphthalimide","245.0","?C","518.0","K","","","","","","-","","-","","-","","-"
"OC(=O)C1=C(C=C(O)C=C1)C(O)=O","-","-","-","4-Hydroxyphthalic acid","191.0 - 194.0","?C","465.5","K","","","","","","-","","-","","-","","-"
"CCCCC(=O)C1=CC=C(O)C=C1","-","-","-","4-Hydroxyvalerophenone","62.0 - 65.0","?C","336.5","K","","","","","","-","","-","","-","","-"
"N#CCCNCCC#N","-","-","-","3,3'-Iminodipropionitrile","-6.0","?C","267.0","K","","","","","","-","","-","","-","","-"
"CC(=O)OC1=CC=C(C=C1)N=C1C=CC(=O)C=C1","-","-","-","INDOPHENOL ACETATE","111.0 - 116.0","?C","386.5","K","","","","","","-","","-","","-","","-"
"COC1=CC=C(CNC2=CC=C(C3=NON=C23)[N+]([O-])=O)C=C1","-","-","-","2,1,3-Benzoxadiazol-4-amine, N-((4-methoxyphenyl)methyl)-7-nitro-","176.0 - 180.0","?C","451.0","K","","","","","","-","","-","","-","","-"
"NC1=CC=CC(=C1)S(O)(=O)=O","-","-","-","Metanilic acid","300.0","?C","573.0","K","","","","","","-","","-","","-","","-"
"COC(C(O)=O)C1=CC=CC=C1","-","-","-","DL-alpha-METHOXYPHENYLACETIC ACID","68.0 - 72.0","?C","343.0","K","","","","","","-","","-","","-","","-"
"COC(=O)C1=CC(N)=CC=C1","-","-","-","Methyl 3-aminobenzoate","52.0 - 55.0","?C","326.5","K","","","","","","-","","-","","-","","-"
"COS(=O)(=O)C1=CC=CC=C1","-","-","-","METHYL BENZENESULFONATE","-4.0","?C","269.0","K","","","","","","-","","-","","-","","-"
"C(C1=NC2=C(S1)C=CC=C2)C1=NC2=C(S1)C=CC=C2","-","-","-","2,2'-Methylenebisbenzothiazole","92.0 - 96.0","?C","367.0","K","","","","","","-","","-","","-","","-"
"CC1=NC2=C(O1)C1=C(C=CC=C1)C=C2","-","-","-","2-methylnaphth[2,1-d]oxazole","37.0","?C","310.0","K","","","","","","-","","-","","-","","-"
"CNC(=O)CC1=CC=CC=C1","-","-","-","N-Methyl-2-phenylacetamide","55.0 - 59.0","?C","330.0","K","","","","","","-","","-","","-","","-"
"CC1=CC(C(O)=O)=C(C=C1)C(O)=O","-","-","-","4-METHYLPHTHALIC ACID","146.0 - 149.0","?C","420.5","K","","","","","","-","","-","","-","","-"
"CC1=CC=C2C(=O)OC(=O)C2=C1","-","-","-","4-Methylphthalic anhydride","88.0 - 92.0","?C","363.0","K","","","","","","-","","-","","-","","-"
"CC1=NN(C(=O)C1)C1=CC=C(C=C1)S(O)(=O)=O","-","-","-","3-Methyl-1-(4-sulfophenyl)-2-pyrazolin-5-one","300.0","?C","573.0","K","","","","","","-","","-","","-","","-"
"CC1=CC(=O)OC2=C1C=CC(OP(O)(O)=O)=C2","-","-","-","4-Methylumbelliferone phosphate","210.0","?C","483.0","K","","","","","","-","","-","","-","","-"
"CCCCCCCCCCCCCC(=O)NC1=CC=CC=C1","-","-","-","Myristanilide","82.0 - 87.0","?C","357.5","K","","","","","","-","","-","","-","","-"
"NC(=S)NC1=CC=CC2=C1C=CC=C2","-","-","-","1-(1-Naphthyl)-2-thiourea","193.0 - 197.0","?C","468.0","K","","","","","","-","","-","","-","","-"
"[O-][N+](=O)C1=CC=C(F)C2=NON=C12","-","-","-","NBD-F","52.0","?C","325.0","K","","","","","","-","","-","","-","","-"
"CCN(CC)C1=CC2=C(C=C1)N=C1C(O2)=CC(=O)C2=C1C=CC=C2","-","-","-","Nile red","203.0 - 205.0","?C","477.0","K","","","","","","-","","-","","-","","-"
"[O-][N+](=O)C1=CC=C(C=C1)S(F)(=O)=O","-","-","-","4-Nitrobenzenesulfonyl fluoride","76.0 - 80.0","?C","351.0","K","","","","","","-","","-","","-","","-"
"[O-][N+](=O)C1=CC(C#N)=C(C=C1)C#N","-","-","-","4-Nitrophthalonitrile","140.0 - 144.0","?C","415.0","K","","","","","","-","","-","","-","","-"
"OC1=C2N=CC=CC2=C(C=C1)N=O","-","-","-","5-Nitroso-8-quinolinol","245.0","?C","518.0","K","","","","","","-","","-","","-","","-"
"OC(=O)C1=C(C=CC(SC#N)=C1)[N+]([O-])=O","-","-","-","2-nitro-5-thiocyanatobenzoic acid","156.0 - 160.0","?C","431.0","K","","","","","","-","","-","","-","","-"
"O1C(=CN=C1C1=CC=CC2=C1C=CC=C2)C1=CC=CC=C1","-","-","-","alpha-NPO","104.0 - 106.0","?C","378.0","K","","","","","","-","","-","","-","","-"
"CCCCCCCCCCCCCCCCCCN=C=S","-","-","-","Octadecyl isothiocyanate","29.0 - 33.0","?C","304.0","K","","","","","","-","","-","","-","","-"
"OC1=CC=C(C=C1)C1(CC2CC1C1CCCC21)C1=CC=C(O)C=C1","-","-","-","4,4'-(Octahydro-4,7-methano-5H-inden-5-ylidene) bisphenol","219.0 - 221.0","?C","493.0","K","","","","","","-","","-","","-","","-"
"CCCCCCCCOC1=CC=C(N)C=C1","-","-","-","4-Octyloxyaniline","35.0 - 39.0","?C","310.0","K","","","","","","-","","-","","-","","-"
"OC1=CC=C(OC2=CC=C(O)C=C2)C=C1","-","-","-","4,4'-Oxydiphenol","163.0 - 168.0","?C","438.5","K","","","","","","-","","-","","-","","-"
"O1C2=C(C=CC(=C2)C2=CC=CC=C2)N=C1C1=CC=C(C=C1)C1=CC=CC=C1","-","-","-","2-(4-Biphenylyl)-6-phenylbenzoxazole","199.0 - 201.0","?C","473.0","K","","","","","","-","","-","","-","","-"
"O1C(=NN=C1C1=CC=C(C=C1)C1=CC=CC=C1)C1=CC=CC=C1","-","-","-","1,3,4-Oxadiazole, 2-(1,1'-biphenyl)-4-yl-5-phenyl-","168.0 - 172.0","?C","443.0","K","","","","","","-","","-","","-","","-"
"CCCCCC1=CC=C(OC(=O)C2=CC=C(OC(=O)C3=CC=C(CCCCC)C=C3)C=C2Cl)C=C1","-","-","-","4-Pentylphenyl 2-chloro-4-(4-pentylbenzoyloxy)benzoate","39.0 - 122.0","?C","353.5","K","","","","","","-","","-","","-","","-"
"OP(O)(=O)OC1=CC=C(C=C1)C1(OC(=O)C2=CC=CC=C12)C1=CC=C(OP(O)(O)=O)C=C1","-","-","-","Phenolphthalein diphosphate","198.0","?C","471.0","K","","","","","","-","","-","","-","","-"
"OC(=O)C1=C(C=CC=C1)C(C1=CC=C(O)C=C1)C1=CC=C(O)C=C1","-","-","-","Phenolphthalin","238.0","?C","511.0","K","","","","","","-","","-","","-","","-"
"O=C(OC1=CC=CC=C1)C1=C2C=CC=CC2=NC2=C1C=CC=C2","-","-","-","Phenyl acridine-9-carboxylate","188.0 - 192.0","?C","463.0","K","","","","","","-","","-","","-","","-"
"ClC(=O)C1=CC=C(C=C1)N=NC1=CC=CC=C1","-","-","-","4-Phenylazobenzoyl chloride","93.0 - 97.0","?C","368.0","K","","","","","","-","","-","","-","","-"
"ON(C(=O)C1=CC=CC=C1)C1=CC=CC=C1","-","-","-","N-Phenylbenzohydroxamic acid","119.0 - 123.0","?C","394.0","K","","","","","","-","","-","","-","","-"
"OC1=C(C=CC2=C1C=CC=C2)C(=O)OC1=CC=CC=C1","-","-","-","Phenyl 1-hydroxy-2-naphthoate","93.0 - 97.0","?C","368.0","K","","","","","","-","","-","","-","","-"
"CS(=O)(=O)NC1=CC=CC=C1","-","-","-","N-Phenylmethanesulfonamide","93.0 - 97.0","?C","368.0","K","","","","","","-","","-","","-","","-"
"OCCC(O)C1=CC=CC=C1","-","-","-","(R)-1-Phenyl-1,3-propanediol","62.0 - 66.0","?C","337.0","K","","","","","","-","","-","","-","","-"
"NC(=O)NNC1=CC=CC=C1","-","-","-","1-Phenylsemicarbazide","174.0 - 176.0","?C","448.0","K","","","","","","-","","-","","-","","-"
"S(C1=CC=CC=C1)C1=NC2=C(C=CC=C2)C=C1","-","-","-","2-(Phenylthio)quinoline","48.0","?C","321.0","K","","","","","","-","","-","","-","","-"
"CC1=NN(C(=O)C1[N+]([O-])=O)C1=CC=C(C=C1)[N+]([O-])=O","-","-","-","Picrolonic acid","119.0","?C","392.0","K","","","","","","-","","-","","-","","-"
"CCCS(O)(=O)=O","-","-","-","1-Propanesulfonic acid","8.0","?C","281.0","K","","","","","","-","","-","","-","","-"
"OC(=O)CCCC1=C2C=CC3=CC=CC4=CC=C(C=C1)C2=C34","-","-","-","1-Pyrenebutyric acid","185.0 - 190.0","?C","460.5","K","","","","","","-","","-","","-","","-"
"OC(=O)C1=CC=C2N=CC=CC2=C1","-","-","-","6-Quinolinecarboxylic acid","293.0 - 294.0","?C","566.5","K","","","","","","-","","-","","-","","-"
"S(SC1=CC=CC2=C1N=CC=C2)C1=CC=CC2=C1N=CC=C2","-","-","-","8,8'-Quinolyl disulfide","205.0 - 206.0","?C","478.5","K","","","","","","-","","-","","-","","-"
"N#CCCCCCCCCC#N","-","-","-","Sebaconitrile","7.0","?C","280.0","K","","","","","","-","","-","","-","","-"
"CCOC(=O)C1=CC=CC=C1C(C1=CC(Br)=C(O)C(Br)=C1)=C1C=C(Br)C(=O)C(Br)=C1","-","-","-","Tetrabromophenolphthalein ethyl ester","208.0 - 211.0","?C","482.5","K","","","","","","-","","-","","-","","-"
"OC1=C(C=C(Cl)C=C1Cl)C(=O)NC1=CC=C(Cl)C(Cl)=C1","-","-","-","3,3',4',5-Tetrachlorosalicylanilide","162.0","?C","435.0","K","","","","","","-","","-","","-","","-"
"CC1(C)CC(C(N)=O)C(C)(C)N1","-","-","-","2,2,5,5-Tetramethyl-3-pyrrolidinecarboxamide","129.0 - 131.0","?C","403.0","K","","","","","","-","","-","","-","","-"
"CC1(C)C=C(C(O)=O)C(C)(C)N1O","-","-","-","2,2,5,5-Tetramethyl-3-pyrrolin-1-oxyl-3-carboxylic acid","202.0","?C","475.0","K","","","","","","-","","-","","-","","-"
"CC1(C)C=C(C(=O)ON2C(=O)CCC2=O)C(C)(C)N1O","-","-","-","2,2,5,5-Tetramethyl-3-pyrrolin-1-oxyl-3-carboxylic acid N-hydroxysuccinimide ester","175.0 - 178.0","?C","449.5","K","","","","","","-","","-","","-","","-"
"CC(C)C1=CC(O)=C(C)C=C1\C(C1=CC=CC=C1S([O-])(=O)=O)=C1/C=C(C)C(=O)C=C1C(C)C","-","-","-","ZINC05224378","283.0","?C","556.0","K","","","","","","-","","-","","-","","-"
"CC1=CC=C(C=C1)S(=O)(=O)CCO","-","-","-","2-(p-Toluenesulfonyl)ethanol","54.0 - 58.0","?C","329.0","K","","","","","","-","","-","","-","","-"
"C1CCC(CC1)P(C1CCCCC1)C1CCCCC1","-","-","-","TRICYCLOHEXYL PHOSPHINE","77.0 - 83.0","?C","353.0","K","","","","","","-","","-","","-","","-"
"CCC1C2=C(C=CC=C2)N(C)C11OC2=C(C=CC=C2[N+]([O-])=O)C=C1","-","-","-","1',3',3'-Trimethylspiro-8-nitro(2H-1-benzopyran-2',2'-indoline)","148.0","?C","421.0","K","","","","","","-","","-","","-","","-"
"COC1=CC=C(C=C1)P(C1=CC=C(OC)C=C1)C1=CC=C(OC)C=C1","-","-","-","Tris(4-methoxyphenyl)phosphine","131.0 - 134.0","?C","405.5","K","","","","","","-","","-","","-","","-"
"ON=C1C(=O)NC(=O)NC1=O","-","-","-","Violuric acid hydrate","236.0 - 242.0","?C","512.0","K","","","","","","-","","-","","-","","-"
"CS(=O)(=O)C1=CC2=C(C=CN2O)C=C1","-","-","-","1-Hydroxy-6-methylsulphonylindole","174.0 - 176.0","?C","448.0","K","","","","","","-","","-","","-","","-"
"COC(=O)C1=CC2=C(C=C1)C(C=O)=CN2","-","-","-","Methyl 3-formylindole-6-carboxylate","219.0 - 224.0","?C","494.5","K","","","","","","-","","-","","-","","-"
"CC1=CC2=C(N1)C=CC(=C2)[N+]([O-])=O","-","-","-","2-Methyl-5-nitroindole","173.0 - 178.0","?C","448.5","K","","","","","","-","","-","","-","","-"
"COC(=O)C1=CC2=C(N1)C=CC(=C2)S(C)(=O)=O","-","-","-","Methyl 5-methylsulphonylindole-2-carboxylate","175.0 - 179.0","?C","450.0","K","","","","","","-","","-","","-","","-"
"CCOC(=O)C1=CC2=C(N1)C(=CC=C2)[N+]([O-])=O","-","-","-","Ethyl 7-nitroindole-2-carboxylate","90.0 - 96.0","?C","366.0","K","","","","","","-","","-","","-","","-"
"CCOC(=O)C1=CC2=C(N1)C=CC(=C2)[N+]([O-])=O","-","-","-","Ethyl 5-nitroindole-2-carboxylate","220.0 - 225.0","?C","495.5","K","","","","","","-","","-","","-","","-"
"CC1=C(C)C2=C(N1)C(=CC=C2)[N+]([O-])=O","-","-","-","2,3-Dimethyl-7-nitroindole","160.0 - 165.0","?C","435.5","K","","","","","","-","","-","","-","","-"
"OC(=O)C1=CC2=C(C=CN2)C=C1","-","-","-","Indole-6-carboxylic acid","248.0 - 254.0","?C","524.0","K","","","","","","-","","-","","-","","-"
"COC(=O)C1=CC=C(C=C1)C(Cl)=O","-","-","-","Methyl 4-chlorocarbonylbenzoate","53.0 - 59.0","?C","329.0","K","","","","","","-","","-","","-","","-"
"COC(=O)C1=CC=C(C=CC(=O)C2=CC=CC=C2)C=C1","-","-","-","Methyl 4-(3-oxo-3-phenyl-1-propenyl) benzoate","119.0 - 120.0","?C","392.5","K","","","","","","-","","-","","-","","-"
"COC(=O)C1=CC=C(C=C1)C(C)=O","-","-","-","Methyl 4-acetylbenzoate","93.0 - 95.0","?C","367.0","K","","","","","","-","","-","","-","","-"
"CS(=O)(=O)C1=C(C=CC=C1)S(Cl)(=O)=O","-","-","-","2-(Methylsulfonyl)benzenesulfonyl chloride","133.0 - 138.0","?C","408.5","K","","","","","","-","","-","","-","","-"
"CS(=O)(=O)C1=CC=C(C=C1)C#N","-","-","-","4-Methylsulphonyl benzonitrile","137.0 - 142.0","?C","412.5","K","","","","","","-","","-","","-","","-"
"CS(=O)(=O)C1=CC=C(C=O)C=C1","-","-","-","4-Methylsulphonyl benzaldehyde","155.0 - 161.0","?C","431.0","K","","","","","","-","","-","","-","","-"
"CC(=O)C1=CC=C(C=C1)S(C)(=O)=O","-","-","-","4-Methylsulphonylacetophenone","129.0 - 131.0","?C","403.0","K","","","","","","-","","-","","-","","-"
"CS(=O)(=O)C1=CC(Cl)=C(N)C=C1","-","-","-","2-Chloro-4-methylsulphonylaniline","191.0 - 198.0","?C","467.5","K","","","","","","-","","-","","-","","-"
"CS(=O)(=O)C1=CC(=C(F)C=C1)[N+]([O-])=O","-","-","-","2-Fluoro-5-methylsulphonylnitrobenzene","152.0 - 158.0","?C","428.0","K","","","","","","-","","-","","-","","-"
"CS(=O)(=O)C1=CC(Cl)=C(O)C(Cl)=C1","-","-","-","2,6-Dichloro-4-methylsulphonyl phenol","223.0 - 224.0","?C","496.5","K","","","","","","-","","-","","-","","-"
"OC(=O)C1=CC=C(C(C=O)C=O)C(=C1)[N+]([O-])=O","-","-","-","2-(4-Hydroxycarbonyl-2-nitrophenyl)malondialdehyde","199.0 - 205.0","?C","475.0","K","","","","","","-","","-","","-","","-"
"[O-][N+](=O)C1=CC=CC=C1C(C=O)C=O","-","-","-","2-(2-Nitrophenyl)malondialdehyde","118.0 - 123.0","?C","393.5","K","","","","","","-","","-","","-","","-"
"ClC1=CC=C(C=C1)C(C=O)C=O","-","-","-","2-(4-Chlorophenyl)malondialdehyde","137.0 - 143.0","?C","413.0","K","","","","","","-","","-","","-","","-"
"CS(=O)(=O)C1=CC=C(C(C=O)C=O)C(=C1)[N+]([O-])=O","-","-","-","2-(4-Methylsulphonyl-2-nitrophenyl)malondialdehyde","213.0 - 219.0","?C","489.0","K","","","","","","-","","-","","-","","-"
"[O-][N+](=O)C1=CC(Cl)=CC=C1C(C=O)C=O","-","-","-","2-(4-Chloro-2-nitrophenyl)malondialdehyde","137.0 - 143.0","?C","413.0","K","","","","","","-","","-","","-","","-"
"COC1=CC=C(C=C1)C(=O)CCl","-","-","-","4-Methoxyphenacyl chloride","98.0 - 100.0","?C","372.0","K","","","","","","-","","-","","-","","-"
"CC1=CC=C(C=C1)C(C=O)C=O","-","-","-","2-(4-Tolyl)malondialdehyde","128.0 - 134.0","?C","404.0","K","","","","","","-","","-","","-","","-"
"O=CC(C=O)C1=NC2=CC=CC=C2N=C1","-","-","-","2-(2-Quinoxalinyl)malondialdehyde","197.0 - 199.0","?C","471.0","K","","","","","","-","","-","","-","","-"
"O=CC(C=O)C1=CC=NC=N1","-","-","-","2-(4-Pyrimidyl)malondialdehyde","227.0 - 232.0","?C","502.5","K","","","","","","-","","-","","-","","-"
"O=CC(C=O)C1=NC2=C(O1)C=CC=C2","-","-","-","2-(2-Benzoxazoyl)malondialdehyde","222.0 - 230.0","?C","499.0","K","","","","","","-","","-","","-","","-"
"O=CC(C=O)C1=CC=NC=C1","-","-","-","2-(4-Pyridyl)malondialdehyde","320.0","?C","593.0","K","","","","","","-","","-","","-","","-"
"O=CC(C=O)C1=NC2=CC=CC=C2C=C1","-","-","-","2-Quinaldylmalondialdehyde","198.0 - 202.0","?C","473.0","K","","","","","","-","","-","","-","","-"
"O=CC(C=O)C1=NC=CN=C1","-","-","-","2-(2-Pyrazinyl)malondialdehyde","202.0 - 207.0","?C","477.5","K","","","","","","-","","-","","-","","-"
"COC(=O)CC(=O)C1=CC(Br)=CN=C1","-","-","-","Methyl 5-bromonicotinoylacetate","88.0 - 93.0","?C","363.5","K","","","","","","-","","-","","-","","-"
"CCOC(=O)CC(=O)C1=CC(OC)=C(OC)C(OC)=C1","-","-","-","Ethyl 3,4,5-trimethoxybenzoylacetate","86.0 - 91.0","?C","361.5","K","","","","","","-","","-","","-","","-"
"COC(=O)CC(=O)C1=CC=C(C=C1)C(F)(F)F","-","-","-","Methyl 4-trifluoromethylbenzoylacetate","57.0 - 62.0","?C","332.5","K","","","","","","-","","-","","-","","-"
"CCOC(=O)CC(=O)C1=CC=NC=C1","-","-","-","Ethyl isonicotinoylacetate","53.0 - 59.0","?C","329.0","K","","","","","","-","","-","","-","","-"
"COC(=O)CC(=O)C1=CC=CN=C1","-","-","-","Methyl nicotinoylacetate","34.0 - 42.0","?C","311.0","K","","","","","","-","","-","","-","","-"
"OC1=CC=C2OC(CC(=O)C2=C1)C1=CC=CC=C1","-","-","-","6-Hydroxyflavanone","220.0 - 222.0","?C","494.0","K","","","","","","-","","-","","-","","-"
"NC1=NC(N)=NC=C1","-","-","-","2,4-Diaminopyrimidine","143.0 - 148.0","?C","418.5","K","","","","","","-","","-","","-","","-"
"CC1=CC=C(C(C)=N1)[N+]([O-])=O","-","-","-","3-Nitro-2,6-lutidine","32.0 - 38.0","?C","308.0","K","","","","","","-","","-","","-","","-"
"NC(CCO)C(O)=O","-","-","-","D-Homoserine","205.0","?C","478.0","K","","","","","","-","","-","","-","","-"
"CC1=C(O)C(CN(CC(O)=O)CC(O)=O)=CC(=C1)C1(OS(=O)(=O)C2=CC=CC=C12)C1=CC(C)=C(O)C(CN(CC(O)=O)CC(O)=O)=C1","-","-","-","o-Cresolsulfonphthaleindi-(methyl-iminodiacetic acid) sodium salt","222.0","?C","495.0","K","","","","","","-","","-","","-","","-"
"NC(C(O)C1=CC=CC=C1)C(O)=O","-","-","-","DL-threo-3-Phenylserine hydrate","186.0","?C","459.0","K","","","","","","-","","-","","-","","-"
"OC(=O)C1C2CC(=O)C1CC2Cl","-","-","-","exo-2-Chloro-5-oxo-bicyclo[2.2.1]heptane-syn-7-carboxylic acid","157.0 - 160.0","?C","431.5","K","","","","","","-","","-","","-","","-"
"OC(=O)C1C2CC3(OCCO3)C1CC2Cl","-","-","-","exo-2-Chloro-5,5-ethylenedioxy-bicyclo[2.2.1]heptane-syn-7-carboxylic acid","163.8 - 165.6","?C","437.7","K","","","","","","-","","-","","-","","-"
"OC(=O)C1C2CC(=O)C1CC2Br","-","-","-","exo-2-Bromo-5-oxo-bicyclo[2.2.1]heptane-syn-7-carboxylic acid","178.0 - 182.0","?C","453.0","K","","","","","","-","","-","","-","","-"
"OC1=CC(Cl)=CN=C1O","-","-","-","5-Chloro-2,3-dihydroxypyridine","295.0","?C","568.0","K","","","","","","-","","-","","-","","-"
"C1CCN(C1)C1CCNCC1","-","-","-","4-(1-Pyrrolidinyl)piperidine","52.0 - 57.0","?C","327.5","K","","","","","","-","","-","","-","","-"
"CN1N=C(O)C=C1C(F)(F)F","-","-","-","3-Hydroxy-1-methyl-5-trifluoromethyl-1H-pyrazole","114.0 - 115.0","?C","387.5","K","","","","","","-","","-","","-","","-"
"CC(C)(C)OC(=O)N=NC(=O)OC(C)(C)C","-","-","-","Di-tert-butyl azodicarboxylate","90.0 - 92.0","?C","364.0","K","","","","","","-","","-","","-","","-"
"FC(F)(F)C1=CC=C(C=C1)N1CCNCC1","-","-","-","N-(alpha,alpha,alpha-Trifluoro-p-tolyl)piperazine","89.0 - 92.0","?C","363.5","K","","","","","","-","","-","","-","","-"
"[O-][N+](=O)C1=CC=C(C=C1)N=C=NC1=CC=C(C=C1)[N+]([O-])=O","-","-","-","N,N'-Bis(4-nitrophenyl)carbodiimide","166.0 - 168.0","?C","440.0","K","","","","","","-","","-","","-","","-"
"CC1=CC=C(C=C1)S(=O)(=O)OCC1CCC(=O)N1","-","-","-","(S)-(+)-5-(Hydroxymethyl)-2-pyrrolidinone p-toluenesulfonate","122.0 - 129.0","?C","398.5","K","","","","","","-","","-","","-","","-"
"N#CCC1=CC2=C(OCO2)C=C1","-","-","-","3,4-(Methylenedioxy)phenylacetonitrile","43.0 - 45.0","?C","317.0","K","","","","","","-","","-","","-","","-"
"CC1=CC(O)=C(C(=O)N1)[N+]([O-])=O","-","-","-","4-Hydroxy-6-methyl-3-nitro-2-pyridone","293.0 - 296.0","?C","567.5","K","","","","","","-","","-","","-","","-"
"ClC(=O)C1=CC(Cl)=CC(Cl)=C1","-","-","-","3,5-Dichlorobenzoyl chloride","40.0","?C","313.0","K","","","","","","-","","-","","-","","-"
"OC1COC(OC2=CC=C3C=C(Br)C=CC3=C2)C(O)C1O","-","-","-","2-(6-Bromonaphthyl)-beta-D-xylopyranoside hydrate","190.0 - 196.0","?C","466.0","K","","","","","","-","","-","","-","","-"
"NCC1=C(O)C=CC=C1","-","-","-","2-Hydroxybenzylamine","127.0 - 131.0","?C","402.0","K","","","","","","-","","-","","-","","-"
"O=C1NC(=O)C2=CC=CC=C2N1","-","-","-","Benzoyleneurea","300.0","?C","573.0","K","","","","","","-","","-","","-","","-"
"CC(=O)COC1=C(C=CC(F)=C1F)[N+]([O-])=O","-","-","-","1-(2,3-Difluoro-6-nitrophenoxy)-2-propanone","40.0 - 45.0","?C","315.5","K","","","","","","-","","-","","-","","-"
"COC(=O)C1=CC2=CC=C(Br)C=C2C=C1","-","-","-","Methyl 6-bromo-2-naphthoate","123.0 - 126.0","?C","397.5","K","","","","","","-","","-","","-","","-"
"CCOC(=O)C1=C(C)N=CN1","-","-","-","Ethyl 4-methyl-5-imidazolecarboxylate","204.0 - 206.0","?C","478.0","K","","","","","","-","","-","","-","","-"
"CC1=CC=CC=C1OCC(O)=O","-","-","-","(2-methylphenoxy)acetic acid","155.0 - 157.0","?C","429.0","K","","","","","","-","","-","","-","","-"
"[O-][N+](=O)C1=CC2=C(C=C1)C1=C(C=CC=C1)C2=O","-","-","-","2-Nitro-9-fluorenone","222.0 - 223.0","?C","495.5","K","","","","","","-","","-","","-","","-"
"OCCCCCCCCCCCCCCC(O)=O","-","-","-","15-hydroxypentadecanoic acid","97.0 - 99.0","?C","371.0","K","","","","","","-","","-","","-","","-"
"O=CC1=CC=C(OP(=S)(OC2=CC=C(C=O)C=C2)OC2=CC=C(C=O)C=C2)C=C1","-","-","-","Thiophosphoryl-PMMH-3 Dendrimer","115.0 - 119.0","?C","390.0","K","","","","","","-","","-","","-","","-"
"CCCC(=O)OC1=CNC2=C1C(Cl)=C(Br)C=C2","-","-","-","5-Bromo-4-chloro-3-indoxyl butyrate","91.0 - 93.0","?C","365.0","K","","","","","","-","","-","","-","","-"
"CC(N1CC(CC1=O)C(O)=O)C1=CC=CC=C1","-","-","-","(1'R,3R)-1-(1'-Phenylethyl)-5-oxo-3-pyrrolidine carboxylic acid","210.0 - 213.0","?C","484.5","K","","","","","","-","","-","","-","","-"