"SMILES","CASRN","EXTERNALID","N","NAME","Melting Point","UNIT {Melting Point}","Melting Point {measured, converted}","UNIT {Melting Point}","Dataset","comment (property)","comment (chemical)","measurement method","Pressure","UNIT {Pressure}","Som set numeric condition","UNIT {Som set numeric condition}","Resp set numeric condition","UNIT {Resp set numeric condition}","Quality code","UNIT {Quality code}"
"CC1=CC(CO)=C(O1)C1=CC=CC=C1","-","-","-","(5-Methyl-2-phenyl-3-furyl)methanol","56.0 - 59.0","?C","330.5","K","","","","","","-","","-","","-","","-"
"COC(=O)C1=CSC2=C1N=C(Cl)C=C2C(F)(F)F","-","-","-","Methyl 5-chloro-7-(trifluoromethyl)thieno[3,2-b]pyridine-3-carboxylate","109.5 - 111.0","?C","383.2","K","","","","","","-","","-","","-","","-"
"N#CC1=CC(=NC=C1)N1CCCC1","-","-","-","2-Pyrrolidin-1-ylisonicotinonitrile","79.0 - 80.0","?C","352.5","K","","","","","","-","","-","","-","","-"
"CC1=CN=CC(=N1)N1CCNCC1","-","-","-","2-Methyl-6-piperazin-1-ylpyrazine","49.0 - 51.0","?C","323.0","K","","","","","","-","","-","","-","","-"
"CNCC1=C(N=C(S1)C1=CC=CC=C1)C1=CC=CC=C1","-","-","-","N-[(2,4-Diphenyl-1,3-thiazol-5-yl)methyl]-N-methylamine","87.0 - 88.0","?C","360.5","K","","","","","","-","","-","","-","","-"
"OC(=O)C1=CC=C(CN2C=CC=N2)C=C1","-","-","-","4-(1H-Pyrazol-1-ylmethyl)benzoic acid","192.0 - 193.0","?C","465.5","K","","","","","","-","","-","","-","","-"
"IC1=CC=C(CN2C=CC=N2)C=C1","-","-","-","1-(4-Iodobenzyl)-1H-pyrazole","80.0 - 81.0","?C","353.5","K","","","","","","-","","-","","-","","-"
"N#CC1=CC=C(CN2C=CC=N2)C=C1","-","-","-","4-(1H-Pyrazol-1-ylmethyl)benzonitrile","80.0 - 82.0","?C","354.0","K","","","","","","-","","-","","-","","-"
"IC1=CC=CC(CN2C=CC=N2)=C1","-","-","-","1-(3-Iodobenzyl)-1H-pyrazole","51.0 - 54.0","?C","325.5","K","","","","","","-","","-","","-","","-"
"BrC1=C2OCCOC2=C(Br)S1","-","-","-","5,7-Dibromo-2,3-dihydrothieno[3,4-b][1,4]dioxine","98.0","?C","371.0","K","","","","","","-","","-","","-","","-"
"BrC1=NC(Br)=NN1","-","-","-","3,5-dibromo-1H-1,2,4-triazole","201.0","?C","474.0","K","","","","","","-","","-","","-","","-"
"CC(C)COC(=O)C1=C(C=CC=C1)C(=O)OCC(C)C","-","-","-","diisobutyl phthalate","-64.0","?C","209.0","K","","","","","","-","","-","","-","","-"
"CN(C)C1CCCCC1","-","-","-","N,N-DIMETHYLCYCLOHEXYLAMINE","-60.0","?C","213.0","K","","","","","","-","","-","","-","","-"
"CC(C)C(C)(C)[Si](C)(C)Cl","-","-","-","Chlorodimethylthexylsilane","15.0","?C","288.0","K","","","","","","-","","-","","-","","-"
"CCOC(=O)NC1=CC=CC=C1","-","-","-","Ethyl carbanilate","47.0 - 51.0","?C","322.0","K","","","","","","-","","-","","-","","-"
"CCC1COC(=O)O1","-","-","-","4-Ethyl-1,3-dioxolan-2-one","-45.0","?C","228.0","K","","","","","","-","","-","","-","","-"
"CCCCC(CC)C=O","-","-","-","2-Ethylhexanal","-76.0","?C","197.0","K","","","","","","-","","-","","-","","-"
"CC(C)COC(=O)C(C)=C","-","-","-","Isobutyl methacrylate","-37.0","?C","236.0","K","","","","","","-","","-","","-","","-"
"COCC(C)OC(C)=O","-","-","-","2-(1-Methoxy)propyl acetate","-87.0","?C","186.0","K","","","","","","-","","-","","-","","-"
"CN(C1=CC=CC=C1)C1=CC=CC=C1","-","-","-","N-Methyldiphenylamine","-7.6","?C","265.4","K","","","","","","-","","-","","-","","-"
"CNC=O","-","-","-","N-METHYLFORMAMIDE","-3.2","?C","269.8","K","","","","","","-","","-","","-","","-"
"COC(=O)CO","-","-","-","Methyl glycolate","149.0 - 151.0","?C","423.0","K","","","","","","-","","-","","-","","-"
"CN(C)CCN(C)CCN(C)C","-","-","-","1,1,4,7,7-Pentamethyldiethylenetriamine","18.0","?C","291.0","K","","","","","","-","","-","","-","","-"
"CCCOCCO","-","-","-","2-Propoxyethanol","-70.0","?C","203.0","K","","","","","","-","","-","","-","","-"
"CC(C)CCCC(C)CCCC(C)CCCC1(C)CCC2=C(O1)C(C)=C(C)C(O)=C2C","-","-","-","D-alpha-Tocopherol","2.5 - 3.5","?C","276.0","K","","","","","","-","","-","","-","","-"
"CCCCCCCCCCCCN(CCCCCCCCCCCC)CCCCCCCCCCCC","-","-","-","Tridodecylamine","16.0","?C","289.0","K","","","","","","-","","-","","-","","-"
"CCCCC(CC)C(=O)OCCOCCOCCOC(=O)C(CC)CCCC","-","-","-","TRIETHYLENE GLYCOL BIS(2-ETHYLHEXANOATE)","-50.0","?C","223.0","K","","","","","","-","","-","","-","","-"
"CN1C(=C)C(C)(C)C2=C1C=CC=C2","-","-","-","1,3,3-Trimethyl-2-methyleneindoline","-8.0","?C","265.0","K","","","","","","-","","-","","-","","-"
"CC(C)C(OC(=O)C(C)C)C(C)(C)COC(=O)C(C)C","-","-","-","2,2,4-Trimethyl-1,3-pentanediol diisobutyrate","-70.0","?C","203.0","K","","","","","","-","","-","","-","","-"
"CC(C)C(N)CO","-","-","-","(R)-(-)-2-Amino-3-methyl-1-butanol","32.0 - 36.0","?C","307.0","K","","","","","","-","","-","","-","","-"
"CCCCCCCCC(=O)OC(=O)CCCCCCCC","-","-","-","Nonanoic anhydride","14.8","?C","287.8","K","","","","","","-","","-","","-","","-"
"CCCCCCCCC=CCCCCCCCC(=O)OC(=O)CCCCCCCC=CCCCCCCCC","-","-","-","Oleic anhydride","22.0 - 23.0","?C","295.5","K","","","","","","-","","-","","-","","-"
"COC(=O)CC(=O)C1=CC=CC=C1Cl","-","-","-","Methyl 2-chlorobenzoylacetate","25.0","?C","298.0","K","","","","","","-","","-","","-","","-"
"C1CN(CCO1)C1=CC=CC=C1","-","-","-","4-Phenylmorpholine","51.0 - 54.0","?C","325.5","K","","","","","","-","","-","","-","","-"
"CC(Cl)C=C","-","-","-","3-CHLORO-1-BUTENE","-50.0","?C","223.0","K","","","","","","-","","-","","-","","-"
"NCC1=CC=CC2=CC=CC=C12","-","-","-","1-Naphthalenemethylamine","262.0 - 269.0","?C","538.5","K","","","","","","-","","-","","-","","-"
"ClC(=O)COC1=CC=C(Cl)C=C1","-","-","-","4-Chlorophenoxyacetyl chloride","19.0","?C","292.0","K","","","","","","-","","-","","-","","-"
"O=C1OC=CO1","-","-","-","VINYLENE CARBONATE","19.0 - 22.0","?C","293.5","K","","","","","","-","","-","","-","","-"
"COC(=O)C1=CC=C(CCl)O1","-","-","-","Methyl 5-(chloromethyl)-2-furancarboxylate","32.0 - 36.0","?C","307.0","K","","","","","","-","","-","","-","","-"
"N=C(C1=CC=CC=C1)C1=CC=CC=C1","-","-","-","Benzophenone imine","-30.0","?C","243.0","K","","","","","","-","","-","","-","","-"
"CN1C=CN=C1C=O","-","-","-","1-Methyl-2-imidazolecarboxaldehyde","35.0 - 39.0","?C","310.0","K","","","","","","-","","-","","-","","-"
"CC(C)(C)C1=C(N)C=CC=C1","-","-","-","2-tert-Butylaniline","-60.0","?C","213.0","K","","","","","","-","","-","","-","","-"
"NC1CCC(N)CC1","-","-","-","trans-1,4-Diaminocyclohexane","68.0 - 71.0","?C","342.5","K","","","","","","-","","-","","-","","-"
"COC(=O)CCC1=CC=C(O)C=C1","-","-","-","Methyl 3-(4-hydroxyphenyl)propionate","37.0 - 41.0","?C","312.0","K","","","","","","-","","-","","-","","-"
"O=C1OC(=O)C2CC12","-","-","-","3-Oxabicyclo[3.1.0]hexane-2,4-dione","54.0 - 60.0","?C","330.0","K","","","","","","-","","-","","-","","-"
"CC(C)(C)OC(=O)C=C","-","-","-","tert-Butyl acrylate","-69.0","?C","204.0","K","","","","","","-","","-","","-","","-"
"CCCCC(CC)COC(=O)C(C)=C","-","-","-","2-ETHYLHEXYL METHACRYLATE","-50.0","?C","223.0","K","","","","","","-","","-","","-","","-"
"NCCCNC1=C(Cl)C=C(C=N1)C(F)(F)F","-","-","-","N-[3-Chloro-5-(trifluoromethyl)pyridin-2-yl]propane-1,3-diamine","60.0 - 65.0","?C","335.5","K","","","","","","-","","-","","-","","-"
"CCC12CC3CC(CC(Br)(C3)C1)C2","-","-","-","1-Bromo-3-ethyladamantane","23.0 - 24.0","?C","296.5","K","","","","","","-","","-","","-","","-"
"CC1=C(C=O)C(C)=NO1","-","-","-","3,5-Dimethyl-4-isoxazolecarbaldehyde","35.0 - 38.0","?C","309.5","K","","","","","","-","","-","","-","","-"
"O=CC1=CC2=C(OCC2)C=C1","-","-","-","2,3-Dihydrobenzo[b]furan-5-carbaldehyde","191.0 - 193.0","?C","465.0","K","","","","","","-","","-","","-","","-"
"CC1=NC(C)=C(S1)C=O","-","-","-","2,4-Dimethyl-1,3-thiazole-5-carbaldehyde","30.0","?C","303.0","K","","","","","","-","","-","","-","","-"
"O=CC1=NC=CN1","-","-","-","1H-Imidazole-2-carbaldehyde","209.0","?C","482.0","K","","","","","","-","","-","","-","","-"
"OCC1=CC2=C(S1)C=CC=C2","-","-","-","1-Benzothiophen-2-ylmethanol","100.0","?C","373.0","K","","","","","","-","","-","","-","","-"
"OCC1=CSC2=C1C=CC=C2","-","-","-","1-Benzothiophen-3-ylmethanol","49.0 - 50.0","?C","322.5","K","","","","","","-","","-","","-","","-"
"CN1N=C(C)C(=C1Cl)S(Cl)(=O)=O","-","-","-","5-Chloro-1,3-dimethyl-1H-pyrazole-4-sulfonyl chloride","35.0","?C","308.0","K","","","","","","-","","-","","-","","-"
"CCOC(C)=CC(=O)OCC","-","-","-","Ethyl 3-ethoxybut-2-enoate","30.0","?C","303.0","K","","","","","","-","","-","","-","","-"
"NC1=CC=C(C=C1)N1C=NC(Cl)=C1Cl","-","-","-","4-(4,5-Dichloro-1H-imidazol-1-yl)aniline","104.0 - 105.0","?C","377.5","K","","","","","","-","","-","","-","","-"
"O=C1CSC(C1)C1=CC=CS1","-","-","-","5-(2-Thienyl)tetrahydrothiophen-3-one","55.0 - 58.0","?C","329.5","K","","","","","","-","","-","","-","","-"
"CCOC(=O)C1=C(SC2=C1CCCC2)N=C=S","-","-","-","Ethyl 2-isothiocyanato-4,5,6,7-tetrahydro-1-benzothiophene-3-carboxylate","45.0 - 46.0","?C","318.5","K","","","","","","-","","-","","-","","-"
"FC(F)(F)C1=CC=CC(=C1)C(=O)CBr","-","-","-","2-Bromo-1-[3-(trifluoromethyl)phenyl]-1-ethanone","22.0","?C","295.0","K","","","","","","-","","-","","-","","-"
"FC(F)(F)C1=CC=CC=C1C=O","-","-","-","2-(Trifluoromethyl)benzaldehyde","-40.0","?C","233.0","K","","","","","","-","","-","","-","","-"
"N#CC1=CC=C(S1)C1=CC=CS1","-","-","-","5-(Thien-2-yl)thiophene-2-carbonitrile","100.0","?C","373.0","K","","","","","","-","","-","","-","","-"
"CCOC(=O)C1=C(C)N=C(S1)C1=CC=CC=C1","-","-","-","Ethyl 4-methyl-2-phenyl-1,3-thiazole-5-carboxylate","36.0 - 39.0","?C","310.5","K","","","","","","-","","-","","-","","-"
"CC(C)(C)C1=CC=C(C=C1)N=C=S","-","-","-","4-(tert-Butyl)phenyl isothiocyanate","42.0","?C","315.0","K","","","","","","-","","-","","-","","-"
"CC1=CC(=NC(=C1)C(C)(C)C)C(C)(C)C","-","-","-","2,6-Di-tert-butyl-4-methylpyridine","33.0 - 36.0","?C","307.5","K","","","","","","-","","-","","-","","-"
"CCCC1=CC=C(C=C1)S(Cl)(=O)=O","-","-","-","4-Propylbenzene-1-sulfonyl chloride","21.0","?C","294.0","K","","","","","","-","","-","","-","","-"
"CC(C)CC(C)(O)C#CC(C)(O)CC(C)C","-","-","-","2,4,7,9-TETRAMETHYL-5-DECYNE-4,7-DIOL","42.0 - 44.0","?C","316.0","K","","","","","","-","","-","","-","","-"
"CN(C)C(C)(C)C","-","-","-","tert-Butyldimethylamine","-90.0","?C","183.0","K","","","","","","-","","-","","-","","-"
"CCOC(=O)N1CCC2(CC1)N(CN(CO)C2=O)C1=CC=CC=C1","-","-","-","Ethyl 3-(hydroxymethyl)-4-oxo-1-phenyl-1,3,8-triazaspiro[4,5]decane-8-carboxylate","134.0 - 139.0","?C","409.5","K","","","","","","-","","-","","-","","-"
"CC1=CC=C(OCCCCBr)C=C1","-","-","-","1-(4-Bromobutoxy)-4-methylbenzene","40.0","?C","313.0","K","","","","","","-","","-","","-","","-"
"OCCCCOC=C","-","-","-","4-Hydroxybutyl vinyl ether","-33.0","?C","240.0","K","","","","","","-","","-","","-","","-"
"CCCCOC(=O)CC(CC(=O)OCCCC)(OC(C)=O)C(=O)OCCCC","-","-","-","ACETYL TRIBUTYL CITRATE","-59.0","?C","214.0","K","","","","","","-","","-","","-","","-"
"COC1=C(C(C)=O)C(O)=CC=C1","-","-","-","2'-Hydroxy-6'-methoxyacetophenone","58.0 - 60.0","?C","332.0","K","","","","","","-","","-","","-","","-"
"CSC(SC)SC","-","-","-","Tris(methylthio)methane","16.0","?C","289.0","K","","","","","","-","","-","","-","","-"
"BrCCOC1=CC=C(Br)C=C1","-","-","-","1-(2-Bromoethoxy-4-bromobenzene)","56.0 - 57.0","?C","329.5","K","","","","","","-","","-","","-","","-"
"CC1=CC=C(OCCBr)C=C1","-","-","-","1-(2-Bromoethoxy)-4-methylbenzene","37.0 - 38.0","?C","310.5","K","","","","","","-","","-","","-","","-"
"ClC1=CC=C(OCCBr)C=C1","-","-","-","1-(2-Bromoethoxy)-4-chlorobenzene","38.0 - 39.0","?C","311.5","K","","","","","","-","","-","","-","","-"
"ClC1=CC=C(OCCCCBr)C=C1","-","-","-","1-(4-Bromobutoxy)-4-chlorobenzene","30.0 - 31.0","?C","303.5","K","","","","","","-","","-","","-","","-"
"COC1=CC=C(OCCBr)C=C1","-","-","-","1-(2-Bromoethoxy)-4-methoxybenzene","46.0 - 50.0","?C","321.0","K","","","","","","-","","-","","-","","-"
"CC(C)(OOCC=C)C1=CC=CC=C1","-","-","-","Allyl cumyl peroxide","60.0","?C","333.0","K","","","","","","-","","-","","-","","-"
"CCC(O)CO","-","-","-","1,2-Butanediol","-50.0","?C","223.0","K","","","","","","-","","-","","-","","-"
"NCCCOCCOCCOCCCN","-","-","-","4,7,10-Trioxa-1,13-tridecanediamine","-32.0","?C","241.0","K","","","","","","-","","-","","-","","-"
"CC(=O)OCCN(CCOC(C)=O)CCOC(C)=O","-","-","-","Triethanolamine triacetate","-40.0","?C","233.0","K","","","","","","-","","-","","-","","-"
"CCOC(=O)CC(O)(CC(=O)OCC)C(=O)OCC","-","-","-","TRIETHYL CITRATE","-46.0","?C","227.0","K","","","","","","-","","-","","-","","-"
"CC(C)(C)OC(=O)NCCCC(O)=O","-","-","-","N-Boc-gamma-Aminobutyric acid","55.0","?C","328.0","K","","","","","","-","","-","","-","","-"
"ClC1=NC=CN=C1Cl","-","-","-","2,3-Dichloropyrazine","22.5 - 24.5","?C","296.5","K","","","","","","-","","-","","-","","-"
"OC(=O)CC1CCC=C1","-","-","-","2-Cyclopentene-1-acetic acid","19.0","?C","292.0","K","","","","","","-","","-","","-","","-"
"CC1=CC(O)=C(F)C=C1","-","-","-","2-Fluoro-5-methylphenol","32.0","?C","305.0","K","","","","","","-","","-","","-","","-"
"[O-][N+](=O)C1=C(C=CC=C1)C1=CC=C(O1)C=O","-","-","-","5-(2-Nitrophenyl)furfural","96.0 - 98.0","?C","370.0","K","","","","","","-","","-","","-","","-"
"ClC1=CC(Cl)=NC=C1","-","-","-","2,4-DICHLOROPYRIDINE","-1.0","?C","272.0","K","","","","","","-","","-","","-","","-"
"COC1=CC=NC=C1","-","-","-","4-METHOXYPYRIDINE","4.0","?C","277.0","K","","","","","","-","","-","","-","","-"
"CCC(C)C(O)=O","-","-","-","DL-2-Methylbutyric acid","-70.0","?C","203.0","K","","","","","","-","","-","","-","","-"
"CCOC(=O)C(O)C1=CC=CC=C1","-","-","-","Ethyl dl-mandelate","37.0","?C","310.0","K","","","","","","-","","-","","-","","-"
"CCP(=O)(CC)CC","-","-","-","Triethylphosphine oxide","52.0 - 53.0","?C","325.5","K","","","","","","-","","-","","-","","-"
"C[Si](C)(C)N([Si](C)(C)C)[Si](C)(C)C","-","-","-","Tris(trimethylsilyl)amine","67.0 - 69.0","?C","341.0","K","","","","","","-","","-","","-","","-"
"[O-][N+](=O)C1=CC=CC=C1OCCBr","-","-","-","1-(2-Bromoethoxy)-2-nitrobenzene","40.0 - 44.0","?C","315.0","K","","","","","","-","","-","","-","","-"
"[O-][N+](=O)C1=CC=CC=C1OCCCBr","-","-","-","1-(3-Bromopropoxy)-2-nitrobenzene","37.0 - 38.0","?C","310.5","K","","","","","","-","","-","","-","","-"
"[O-][N+](=O)C1=CC=CC(OCCBr)=C1","-","-","-","1-(2-Bromoethoxy)-3-nitrobenzene","39.0","?C","312.0","K","","","","","","-","","-","","-","","-"
"S1C=CC=C1C1=CC=CC=C1","-","-","-","2-Phenylthiophene","34.0 - 36.0","?C","308.0","K","","","","","","-","","-","","-","","-"
"FC1=CC(C=O)=CC(F)=C1F","-","-","-","3,4,5-Trifluorobenzaldehyde","25.3","?C","298.3","K","","","","","","-","","-","","-","","-"
"FC(F)(F)C1=CC=CC(=C1)N=C=O","-","-","-","alpha,alpha,alpha-Trifluoro-m-tolyl isocyanate","-26.0","?C","247.0","K","","","","","","-","","-","","-","","-"
"ClC(=O)C1=CC(=CC=C1)C#N","-","-","-","3-Cyanobenzoyl chloride","38.0 - 44.0","?C","314.0","K","","","","","","-","","-","","-","","-"
"CC1=CC=C(C=C1)S(=O)(=O)OCC1CC2=C(O1)C=CC=C2","-","-","-","2,3-Dihydro-1-benzofuran-2-ylmethyl 4-methylbenzenesulfonate","72.0 - 73.0","?C","345.5","K","","","","","","-","","-","","-","","-"
"ClCC1=NC(=NO1)C1=CC=CC=C1","-","-","-","5-(Chloromethyl)-3-phenyl-1,2,4-oxadiazole","42.0","?C","315.0","K","","","","","","-","","-","","-","","-"
"CC1=CC=C(N=C=S)C(C)=C1","-","-","-","2,4-Dimethylphenyl isothiocyanate","27.0","?C","300.0","K","","","","","","-","","-","","-","","-"
"O=C(OCC1=CC=CC=C1)C(=O)OCC1=CC=CC=C1","-","-","-","Dibenzyl oxalate","80.0 - 82.0","?C","354.0","K","","","","","","-","","-","","-","","-"
"ClC1=CC=C(CN=C=S)C(Cl)=C1","-","-","-","2,4-Dichlorobenzyl isothiocyanate","26.0 - 28.0","?C","300.0","K","","","","","","-","","-","","-","","-"
"CCOC(=O)C1=C(C)N=C(S1)C1CCN(CC1)C(=O)OC(C)(C)C","-","-","-","tert-Butyl 4-[5-(ethoxycarbonyl)-4-methyl-1,3-thiazol-2-yl]tetrahydro-1(2H)-pyridinecarboxylate","47.0","?C","320.0","K","","","","","","-","","-","","-","","-"
"OC1=C(F)C=C(Cl)C=C1","-","-","-","4-Chloro-2-fluorophenol","20.0","?C","293.0","K","","","","","","-","","-","","-","","-"
"OC1=CC=C(Cl)C=C1C1CCCCC1","-","-","-","4-Chloro-2-cyclohexylphenol","59.0 - 60.0","?C","332.5","K","","","","","","-","","-","","-","","-"
"CCOC(=O)CC1=CC=C(O)C=C1","-","-","-","Ethyl 2-(4-hydroxyphenyl)acetate","39.0 - 40.0","?C","312.5","K","","","","","","-","","-","","-","","-"
"FC(F)(F)C(=O)CC(=O)C1=CC2=C(OCO2)C=C1","-","-","-","1-(1,3-Benzodioxol-5-yl)-4,4,4-trifluorobutane-1,3-dione","108.0 - 109.0","?C","381.5","K","","","","","","-","","-","","-","","-"
"CCOC(=O)C(=O)C=CN(C)C","-","-","-","Ethyl 4-(dimethylamino)-2-oxobut-3-enoate","38.0","?C","311.0","K","","","","","","-","","-","","-","","-"
"OCC1=CC=C(CN2C=NC=N2)C=C1","-","-","-","[4-(1H-1,2,4-Triazol-1-ylmethyl)phenyl]methanol","68.0 - 70.0","?C","342.0","K","","","","","","-","","-","","-","","-"
"NC1=CC=C(Br)C(Cl)=C1Cl","-","-","-","4-Bromo-2,3-dichloroaniline","75.0 - 77.0","?C","349.0","K","","","","","","-","","-","","-","","-"
"CC1=CC(C=O)=CC(C)=C1","-","-","-","3,5-Dimethylbenzaldehyde","8.0 - 10.0","?C","282.0","K","","","","","","-","","-","","-","","-"
"FC(F)(F)C1=CC(=CC(=C1)N1C=CC=C1)C(F)(F)F","-","-","-","1-[3,5-di(trifluoromethyl)phenyl]-1H-pyrrole","43.0 - 45.0","?C","317.0","K","","","","","","-","","-","","-","","-"
"FC(F)(F)C1=CC2=NSN=C2C=C1","-","-","-","5-(trifluoromethyl)-2,1,3-benzothiadiazole","36.0 - 37.0","?C","309.5","K","","","","","","-","","-","","-","","-"
"NC1=C(C=CC=C1)C1=CC=CN=C1","-","-","-","2-Pyridin-3-ylaniline","72.0","?C","345.0","K","","","","","","-","","-","","-","","-"
"CC1=CC(Cl)=C2C=CC=CC2=N1","-","-","-","4-Chloro-2-methylquinoline","39.0 - 41.0","?C","313.0","K","","","","","","-","","-","","-","","-"
"CCN(CC)C(Cl)=S","-","-","-","N,N-Diethylcarbamothioic chloride","45.0 - 50.0","?C","320.5","K","","","","","","-","","-","","-","","-"
"CC1(O)CNC(=O)C1","-","-","-","4-Hydroxy-4-methylpyrrolidin-2-one","140.0","?C","413.0","K","","","","","","-","","-","","-","","-"
"CC1=C(Cl)C=C(C=C1)N=C=O","-","-","-","3-Chloro-4-methylphenyl isocyanate","23.0","?C","296.0","K","","","","","","-","","-","","-","","-"
"FC(F)(F)C1=CC=C(C=C1)N=C=S","-","-","-","4-(Trifluoromethyl)phenyl isothiocyanate","41.0 - 43.0","?C","315.0","K","","","","","","-","","-","","-","","-"
"CCCCC1=CC=C(C=C1)C1=CC=CC=C1","-","-","-","4-butyl-1,1'-biphenyl","7.0","?C","280.0","K","","","","","","-","","-","","-","","-"
"C[Si](C)(C)C#CC1=NC=CC=C1","-","-","-","2-(Trimethylsilylethynyl)pyridine","42.0 - 45.0","?C","316.5","K","","","","","","-","","-","","-","","-"
"N#CC1=CC(=NC=C1)N1CCCCC1","-","-","-","2-Piperidin-1-ylisonicotinonitrile","55.0 - 57.0","?C","329.0","K","","","","","","-","","-","","-","","-"
"COC(=O)C1=CN=C(C=C1)C1=CC=CC=C1","-","-","-","Methyl 6-phenylnicotinate","110.0","?C","383.0","K","","","","","","-","","-","","-","","-"
"OC(=O)C1=CN=C(C=C1)C1=CC=CO1","-","-","-","6-(2-Furyl)nicotinic acid","200.0","?C","473.0","K","","","","","","-","","-","","-","","-"
"OC(=O)CC(F)(F)F","-","-","-","3,3,3-Trifluoropropionic acid","9.7","?C","282.7","K","","","","","","-","","-","","-","","-"
"FC(F)(F)C1=CN=C(C=C1)N1CCCNCC1","-","-","-","1-[5-(trifluoromethyl)-2-pyridyl]-1,4-diazepane","50.0 - 53.0","?C","324.5","K","","","","","","-","","-","","-","","-"
"ClCCCCI","-","-","-","1-Chloro-4-iodobutane","93.0","?C","366.0","K","","","","","","-","","-","","-","","-"
"CCCCCC1=CC=C(C=C1)C1=CC=C(C=C1)C#N","-","-","-","4-Cyano-4'-n-pentylbiphenyl","34.0","?C","307.0","K","","","","","","-","","-","","-","","-"
"CCCC(=O)C(C)=O","-","-","-","2,3-Hexanedione","-30.0","?C","243.0","K","","","","","","-","","-","","-","","-"
"OC(C#C)(C1=CC=CC=C1)C1=CC=CC=C1","-","-","-","1,1-Diphenyl-2-propyn-1-ol","47.0 - 48.0","?C","320.5","K","","","","","","-","","-","","-","","-"
"CS(=O)(=O)OS(C)(=O)=O","-","-","-","Methanesulfonic anhydride","69.0 - 70.0","?C","342.5","K","","","","","","-","","-","","-","","-"
"CC1(C)CCC(=O)CC1=O","-","-","-","4,4-Dimethyl-1,3-cyclohexanedione","103.0 - 105.0","?C","377.0","K","","","","","","-","","-","","-","","-"
"O=C(OCC1=CC=CC=C1)OCC1=CC=CC=C1","-","-","-","Dibenzyl carbonate","29.0 - 33.0","?C","304.0","K","","","","","","-","","-","","-","","-"