"SMILES","CASRN","EXTERNALID","N","NAME","Melting Point","UNIT {Melting Point}","Melting Point {measured, converted}","UNIT {Melting Point}","Dataset","comment (property)","comment (chemical)","measurement method","Pressure","UNIT {Pressure}","Som set numeric condition","UNIT {Som set numeric condition}","Resp set numeric condition","UNIT {Resp set numeric condition}","Quality code","UNIT {Quality code}"
"BrCC1=CC2=CC=CC=C2N1S(=O)(=O)C1=CC=CC=C1","-","-","-","2-(Bromomethyl)-1-(phenylsulfonyl)-1H-indole","116.0 - 117.0","?C","389.5","K","","","","","","-","","-","","-","","-"
"ClC(=O)C1=NC=CN=C1","-","-","-","2-Pyrazinecarbonyl chloride","150.0","?C","423.0","K","","","","","","-","","-","","-","","-"
"CN1C=NC(=C1)C(O)=O","-","-","-","1-Methyl-1H-imidazole-4-carboxylic acid","245.0","?C","518.0","K","","","","","","-","","-","","-","","-"
"CN1C=NC(=C1)S(Cl)(=O)=O","-","-","-","1-Methyl-1H-imidazole-4-sulfonyl chloride","85.0 - 90.0","?C","360.5","K","","","","","","-","","-","","-","","-"
"CN1C(CN)=NC2=C1C=CC=C2","-","-","-","(1-Methyl-1H-benzimidazol-2-yl)methylamine","261.0 - 263.0","?C","535.0","K","","","","","","-","","-","","-","","-"
"BrCC1=C2N=CC=CC2=CC=C1","-","-","-","8-(Bromomethyl)quinoline","81.0 - 82.0","?C","354.5","K","","","","","","-","","-","","-","","-"
"CC1=NC(=CS1)C(O)=O","-","-","-","2-Methyl-1,3-thiazole-4-carboxylic acid","148.0 - 149.0","?C","421.5","K","","","","","","-","","-","","-","","-"
"CC1=NC(C)=C(S1)C(O)=O","-","-","-","2,4-Dimethyl-1,3-thiazole-5-carboxylic acid","233.0 - 235.0","?C","507.0","K","","","","","","-","","-","","-","","-"
"CC1=NC(C)=C(CO)S1","-","-","-","(2,4-Dimethyl-1,3-thiazol-5-yl)methanol","56.0 - 57.0","?C","329.5","K","","","","","","-","","-","","-","","-"
"CC1=NC(C)=C(Br)S1","-","-","-","5-Bromo-2,4-dimethyl-1,3-thiazole","153.0 - 155.0","?C","427.0","K","","","","","","-","","-","","-","","-"
"ClS(=O)(=O)C1=CC2=C(C=C1)N=CS2","-","-","-","1,3-Benzothiazole-6-sulfonyl chloride","118.0 - 119.0","?C","391.5","K","","","","","","-","","-","","-","","-"
"BrC1=CC2=C(C=C1)N=CS2","-","-","-","6-Bromo-1,3-benzothiazole","53.0 - 54.0","?C","326.5","K","","","","","","-","","-","","-","","-"
"ClC(=O)C1=NC2=CC=CC=C2S1","-","-","-","1,3-Benzothiazole-2-carbonyl chloride","150.0","?C","423.0","K","","","","","","-","","-","","-","","-"
"O=CC1=NC2=CC=CC=C2S1","-","-","-","1,3-Benzothiazole-2-carbaldehyde","74.0","?C","347.0","K","","","","","","-","","-","","-","","-"
"BrCC1=NC2=C(S1)C=CC=C2","-","-","-","2-(Bromomethyl)-1,3-benzothiazole","47.0","?C","320.0","K","","","","","","-","","-","","-","","-"
"BrC1=NC2=C(S1)C=CC=C2","-","-","-","2-Bromo-1,3-benzothiazole","40.0 - 42.0","?C","314.0","K","","","","","","-","","-","","-","","-"
"ClC(=O)C1=CC2=CC=CC=C2O1","-","-","-","1-Benzofuran-2-carbonyl chloride","54.0 - 55.0","?C","327.5","K","","","","","","-","","-","","-","","-"
"BrCC(=O)C1=CC2=CC=CC=C2O1","-","-","-","1-(1-Benzofuran-2-yl)-2-bromoethan-1-one","89.0 - 90.0","?C","362.5","K","","","","","","-","","-","","-","","-"
"OC(=O)C1=CC2=C(OC=C2)C=C1","-","-","-","1-Benzofuran-5-carboxylic acid","189.0 - 190.0","?C","462.5","K","","","","","","-","","-","","-","","-"
"ClC(=O)C1=CC2=C(OC=C2)C=C1","-","-","-","1-Benzofuran-5-carbonyl chloride","67.0 - 68.0","?C","340.5","K","","","","","","-","","-","","-","","-"
"O=CC1=CC2=C(OC=C2)C=C1","-","-","-","1-Benzofuran-5-carbaldehyde","37.0 - 38.0","?C","310.5","K","","","","","","-","","-","","-","","-"
"NCC1=CC2=C(OC=C2)C=C1","-","-","-","1-Benzofuran-5-ylmethylamine","32.0 - 34.0","?C","306.0","K","","","","","","-","","-","","-","","-"
"NC(=S)C1=CC2=C(OC=C2)C=C1","-","-","-","1-Benzofuran-5-carbothioamide","98.6","?C","371.6","K","","","","","","-","","-","","-","","-"
"BrC1=NC=CC=N1","-","-","-","2-Bromopyrimidine","55.0 - 56.0","?C","328.5","K","","","","","","-","","-","","-","","-"
"OC(=O)C1CCN(CC1)C(=O)OCC1=CC=CC=C1","-","-","-","1-[(Benzyloxy)carbonyl]piperidine-4-carboxylic acid","78.0 - 81.0","?C","352.5","K","","","","","","-","","-","","-","","-"
"BrCC1CCN(CC1)C(=O)OCC1=CC=CC=C1","-","-","-","Benzyl 4-(bromomethyl)tetrahydro-1(2H)-pyridinecarboxylate","68.0","?C","341.0","K","","","","","","-","","-","","-","","-"
"BrC1=NN=CS1","-","-","-","2-Bromo-1,3,4-thiadiazole","70.0 - 73.0","?C","344.5","K","","","","","","-","","-","","-","","-"
"CC1=CC(C(O)=O)=C(C)N1","-","-","-","2,5-Dimethyl-1H-pyrrole-3-carboxylic acid","200.0","?C","473.0","K","","","","","","-","","-","","-","","-"
"CN1C(C)=CC(C(O)=O)=C1C","-","-","-","1,2,5-Trimethyl-1H-pyrrole-3-carboxylic acid","150.0","?C","423.0","K","","","","","","-","","-","","-","","-"
"OC(=O)C1=CNC=N1","-","-","-","1H-Imidazole-4-carboxylic acid","243.0 - 245.0","?C","517.0","K","","","","","","-","","-","","-","","-"
"NC(=S)C1=CNC=N1","-","-","-","1H-Imidazole-4-carbothioamide","205.0 - 207.0","?C","479.0","K","","","","","","-","","-","","-","","-"
"BrC1=NC2=C(N1)C=CC=C2","-","-","-","2-Bromo-1H-benzimidazole","200.0","?C","473.0","K","","","","","","-","","-","","-","","-"
"OC(=O)C1=CC=CC2=NSN=C12","-","-","-","2,1,3-Benzothiadiazole-4-carboxylic acid","198.0 - 200.0","?C","472.0","K","","","","","","-","","-","","-","","-"
"ClC(=O)C1=CC=CC2=NSN=C12","-","-","-","2,1,3-Benzothiadiazole-4-carbonyl chloride","110.0 - 114.0","?C","385.0","K","","","","","","-","","-","","-","","-"
"ClS(=O)(=O)C1=CC=CC2=NSN=C12","-","-","-","2,1,3-Benzothiadiazole-4-sulfonyl chloride","148.0 - 150.0","?C","422.0","K","","","","","","-","","-","","-","","-"
"O=CC1=CC=CC2=NSN=C12","-","-","-","2,1,3-Benzothiadiazole-4-carbaldehyde","99.0 - 101.0","?C","373.0","K","","","","","","-","","-","","-","","-"
"O=C=NC1=CC=CC2=NSN=C12","-","-","-","2,1,3-Benzothiadiazol-4-yl isocyanate","81.0 - 82.0","?C","354.5","K","","","","","","-","","-","","-","","-"
"S=C=NC1=CC=CC2=NSN=C12","-","-","-","2,1,3-Benzothiadiazol-4-yl isothiocyanate","88.0 - 89.0","?C","361.5","K","","","","","","-","","-","","-","","-"
"BrCC1=CC=CC2=NSN=C12","-","-","-","4-(Bromomethyl)-2,1,3-benzothiadiazole","89.0 - 92.0","?C","363.5","K","","","","","","-","","-","","-","","-"
"BrC1=CC=CC2=NSN=C12","-","-","-","4-Bromo-2,1,3-benzothiadiazole","80.0 - 81.0","?C","353.5","K","","","","","","-","","-","","-","","-"
"IC1=CC=CC2=NSN=C12","-","-","-","4-Iodo-2,1,3-benzothiadiazole","96.0 - 97.0","?C","369.5","K","","","","","","-","","-","","-","","-"
"OC(=O)C1=CC2=NSN=C2C=C1","-","-","-","2,1,3-Benzothiadiazole-5-carboxylic acid","229.0 - 231.0","?C","503.0","K","","","","","","-","","-","","-","","-"
"ClC(=O)C1=CC2=NSN=C2C=C1","-","-","-","2,1,3-Benzothiadiazole-5-carbonyl chloride","111.0","?C","384.0","K","","","","","","-","","-","","-","","-"
"ClS(=O)(=O)C1=CC2=NSN=C2C=C1","-","-","-","2,1,3-Benzothiadiazole-5-sulfonyl chloride","69.0 - 74.0","?C","344.5","K","","","","","","-","","-","","-","","-"
"O=CC1=CC2=NSN=C2C=C1","-","-","-","2,1,3-Benzothiadiazole-5-carbaldehyde","90.0 - 92.0","?C","364.0","K","","","","","","-","","-","","-","","-"
"S=C=NC1=CC2=NSN=C2C=C1","-","-","-","2,1,3-Benzothiadiazol-5-yl isothiocyanate","96.0 - 97.0","?C","369.5","K","","","","","","-","","-","","-","","-"
"BrCC1=CC2=NSN=C2C=C1","-","-","-","5-(Bromomethyl)-2,1,3-benzothiadiazole","91.0","?C","364.0","K","","","","","","-","","-","","-","","-"
"OCC1=CC2=NSN=C2C=C1","-","-","-","2,1,3-Benzothiadiazol-5-ylmethanol","58.0 - 63.0","?C","333.5","K","","","","","","-","","-","","-","","-"
"BrC1=CC2=NSN=C2C=C1","-","-","-","5-Bromo-2,1,3-benzothiadiazole","59.0 - 60.0","?C","332.5","K","","","","","","-","","-","","-","","-"
"NC1=CC2=NSN=C2C=C1","-","-","-","2,1,3-Benzothiadiazol-5-amine","112.0 - 114.0","?C","386.0","K","","","","","","-","","-","","-","","-"
"ClC(=O)C1=CC2=C(SN=N2)C=C1","-","-","-","1,2,3-Benzothiadiazole-5-carbonyl chloride","93.0 - 96.0","?C","367.5","K","","","","","","-","","-","","-","","-"
"ClS(=O)(=O)C1=CC=CC2=NON=C12","-","-","-","2,1,3-Benzoxadiazole-4-sulfonyl chloride","77.0 - 78.0","?C","350.5","K","","","","","","-","","-","","-","","-"
"OC(=O)C1=CC2=NON=C2C=C1","-","-","-","2,1,3-Benzoxadiazole-5-carboxylic acid","157.0 - 158.0","?C","430.5","K","","","","","","-","","-","","-","","-"
"ClC(=O)C1=CC2=NON=C2C=C1","-","-","-","2,1,3-benzoxadiazole-5-carbonyl chloride","55.0 - 58.0","?C","329.5","K","","","","","","-","","-","","-","","-"
"O=CC1=CC2=NON=C2C=C1","-","-","-","2,1,3-Benzoxadiazole-5-carbaldehyde","58.0","?C","331.0","K","","","","","","-","","-","","-","","-"
"BrCC1=CC2=NON=C2C=C1","-","-","-","5-(Bromomethyl)-2,1,3-benzoxadiazole","77.0 - 80.0","?C","351.5","K","","","","","","-","","-","","-","","-"
"OCC1=CC2=NON=C2C=C1","-","-","-","2,1,3-Benzoxadiazol-5-ylmethanol","66.0 - 67.0","?C","339.5","K","","","","","","-","","-","","-","","-"
"BrC1=CC2=NON=C2C=C1","-","-","-","5-Bromo-2,1,3-benzoxadiazole","72.0 - 74.0","?C","346.0","K","","","","","","-","","-","","-","","-"
"OC(=O)C1=C(OC=N1)C1=CC=CC=C1","-","-","-","5-Phenyl-1,3-oxazole-4-carboxylic acid","181.0","?C","454.0","K","","","","","","-","","-","","-","","-"
"ClC(=O)C1=C(OC=N1)C1=CC=CC=C1","-","-","-","5-Phenyl-1,3-oxazole-4-carbonyl chloride","74.0 - 79.0","?C","349.5","K","","","","","","-","","-","","-","","-"
"OCC1=C(OC=N1)C1=CC=CC=C1","-","-","-","(5-Phenyl-1,3-oxazol-4-yl)methanol","95.0 - 97.0","?C","369.0","K","","","","","","-","","-","","-","","-"
"OC(=O)C1=CC=C(S1)C1=CC=CC=C1","-","-","-","5-Phenylthiophene-2-carboxylic acid","188.0 - 192.0","?C","463.0","K","","","","","","-","","-","","-","","-"
"ClC(=O)C1=CC=C(S1)C1=CC=CC=C1","-","-","-","5-Phenyl-2-thiophenecarbonyl chloride","76.0 - 80.0","?C","351.0","K","","","","","","-","","-","","-","","-"
"BrCC(=O)C1=CC=C(S1)C1=CC=CC=C1","-","-","-","2-Bromo-1-(5-phenyl-2-thienyl)-1-ethanone","115.0 - 117.0","?C","389.0","K","","","","","","-","","-","","-","","-"
"BrC1=CC=C(S1)C1=CC=CC=C1","-","-","-","2-Bromo-5-phenylthiophene","83.0 - 85.0","?C","357.0","K","","","","","","-","","-","","-","","-"
"ClC(=O)C1=CSC(=N1)C1=CC=CS1","-","-","-","2-(2-Thienyl)-1,3-thiazole-4-carbonyl chloride","93.0 - 94.0","?C","366.5","K","","","","","","-","","-","","-","","-"
"OCC1=CSC(=N1)C1=CC=CS1","-","-","-","[2-(2-Thienyl)-1,3-thiazol-4-yl]methanol","87.0 - 90.0","?C","361.5","K","","","","","","-","","-","","-","","-"
"ClCC1=CSC(=N1)C1=CC=CS1","-","-","-","4-(Chloromethyl)-2-(2-thienyl)-1,3-thiazole","52.0 - 56.0","?C","327.0","K","","","","","","-","","-","","-","","-"
"OC(=O)C1=CC(=CN=C1)C1=CC=CS1","-","-","-","5-(2-Thienyl)nicotinic acid","261.0","?C","534.0","K","","","","","","-","","-","","-","","-"
"ClC(=O)C1=CC2=NC=CN=C2C=C1","-","-","-","6-Quinoxalinecarbonyl chloride","119.0","?C","392.0","K","","","","","","-","","-","","-","","-"
"BrC1=CC=C2N=CC=NC2=C1","-","-","-","6-Bromoquinoxaline","54.0 - 55.0","?C","327.5","K","","","","","","-","","-","","-","","-"
"OC(=O)C1=CC=C(C=C1)C1=CC=CS1","-","-","-","4-(2-Thienyl)benzoic acid","240.0 - 244.0","?C","515.0","K","","","","","","-","","-","","-","","-"
"ClC(=O)C1=CC=C(C=C1)C1=CC=CS1","-","-","-","4-(2-Thienyl)benzoyl chloride","113.0 - 115.0","?C","387.0","K","","","","","","-","","-","","-","","-"
"O=CC1=CC=C(C=C1)C1=CC=CS1","-","-","-","4-(2-Thienyl)benzaldehyde","67.0 - 68.0","?C","340.5","K","","","","","","-","","-","","-","","-"
"ClS(=O)(=O)C1=CC2=C(S1)C=CC=C2","-","-","-","1-Benzothiophene-2-sulfonyl chloride","75.0 - 76.0","?C","348.5","K","","","","","","-","","-","","-","","-"
"NCC1=CC2=C(S1)C=CC=C2","-","-","-","1-Benzothiophen-2-ylmethylamine","58.0 - 59.0","?C","331.5","K","","","","","","-","","-","","-","","-"
"ClS(=O)(=O)C1=CSC2=CC=CC=C12","-","-","-","1-Benzothiophene-3-sulfonyl chloride","86.0 - 88.0","?C","360.0","K","","","","","","-","","-","","-","","-"
"O=CC1=CSC2=C1C=CC=C2","-","-","-","1-Benzothiophene-3-carbaldehyde","56.0 - 58.0","?C","330.0","K","","","","","","-","","-","","-","","-"
"BrCC(=O)C1=CSC2=CC=CC=C12","-","-","-","1-Benzo[b]thiophen-3-yl-2-bromoethan-1-one","138.0 - 139.0","?C","411.5","K","","","","","","-","","-","","-","","-"
"NC(=S)C1=CSC2=C1C=CC=C2","-","-","-","1-Benzothiophene-3-carbothioamide","121.0 - 124.0","?C","395.5","K","","","","","","-","","-","","-","","-"
"CN1N=C(C)C=C1C(O)=O","-","-","-","1,3-dimethyl-1H-pyrazole-5-carboxylic acid","209.0 - 211.0","?C","483.0","K","","","","","","-","","-","","-","","-"
"CN1N=C(C)C=C1CO","-","-","-","(1,3-Dimethyl-1H-pyrazol-5-yl)methanol","52.0 - 54.0","?C","326.0","K","","","","","","-","","-","","-","","-"
"CN1N=C(C=C1C)C(O)=O","-","-","-","1,5-dimethyl-1H-pyrazole-3-carboxylic acid","175.0 - 178.0","?C","449.5","K","","","","","","-","","-","","-","","-"
"CN1N=C(C=C1C)C(Cl)=O","-","-","-","1,5-Dimethyl-1H-pyrazole-3-carbonyl chloride","73.0 - 74.0","?C","346.5","K","","","","","","-","","-","","-","","-"
"CN1N=C(CO)C=C1C","-","-","-","(1,5-Dimethyl-1H-pyrazol-3-yl)methanol","50.0 - 51.0","?C","323.5","K","","","","","","-","","-","","-","","-"
"IC1=CC=C(C=C1)C1=CC=NO1","-","-","-","5-(4-Iodophenyl)isoxazole","139.0 - 140.0","?C","412.5","K","","","","","","-","","-","","-","","-"
"BrCC(=O)C1=CC=CS1","-","-","-","2-Bromo-1-(2-thienyl)-1-ethanone","109.0 - 111.0","?C","383.0","K","","","","","","-","","-","","-","","-"
"O=C=NC1=CC=CS1","-","-","-","2-Thienyl isocyanate","108.0 - 110.0","?C","382.0","K","","","","","","-","","-","","-","","-"
"ClC(=O)C1=CSC=C1","-","-","-","3-Thiophenecarbonyl chloride","50.0 - 54.0","?C","325.0","K","","","","","","-","","-","","-","","-"
"ClS(=O)(=O)C1=CSC=C1","-","-","-","3-Thiophenesulfonyl chloride","44.0 - 45.0","?C","317.5","K","","","","","","-","","-","","-","","-"
"BrCC(=O)C1=CSC=C1","-","-","-","2-Bromo-1-(3-thienyl)-1-ethanone","61.0 - 62.0","?C","334.5","K","","","","","","-","","-","","-","","-"
"OC(=O)C1=CC2=C(OCCCO2)C=C1","-","-","-","3,4-Dihydro-2H-1,5-benzodioxepine-7-carboxylic acid","143.0 - 146.0","?C","417.5","K","","","","","","-","","-","","-","","-"
"ClC(=O)C1=CC=C2OCCCOC2=C1","-","-","-","3,4-Dihydro-2H-1,5-benzodioxepine-7-carbonyl chloride","29.0 - 33.0","?C","304.0","K","","","","","","-","","-","","-","","-"
"ClS(=O)(=O)C1=CC=C2OCCCOC2=C1","-","-","-","3,4-Dihydro-2H-1,5-benzodioxepine-7-sulfonyl chloride","50.0 - 52.0","?C","324.0","K","","","","","","-","","-","","-","","-"
"BrCC(=O)C1=CC2=C(OCCCO2)C=C1","-","-","-","2-Bromo-1-(3,4-dihydro-2H-1,5-benzodioxepin-7-yl)ethan-1-one","78.0 - 80.0","?C","352.0","K","","","","","","-","","-","","-","","-"
"OC(=O)C1CC2=CC=CC=C2N1C(=O)OCC1=CC=CC=C1","-","-","-","1-[(Benzyloxy)carbonyl]-2-indolinecarboxylic acid","103.0 - 105.0","?C","377.0","K","","","","","","-","","-","","-","","-"
"OCC1CC2=CC=CC=C2N1C(=O)OCC1=CC=CC=C1","-","-","-","Benzyl 2-(hydroxymethyl)-1-indolinecarboxylate","67.0 - 71.0","?C","342.0","K","","","","","","-","","-","","-","","-"
"CN1CCOC2=C1C=CC(=C2)C(Cl)=O","-","-","-","4-Methyl-3,4-dihydro-2H-1,4-benzoxazine-7-carbonyl chloride","96.0 - 100.0","?C","371.0","K","","","","","","-","","-","","-","","-"
"CN1CCOC2=C1C=CC(=C2)S(Cl)(=O)=O","-","-","-","4-Methyl-3,4-dihydro-2H-1,4-benzoxazine-7-sulfonyl chloride","66.0 - 68.0","?C","340.0","K","","","","","","-","","-","","-","","-"
"CN1CCOC2=CC(C=O)=CC=C12","-","-","-","4-Methyl-3,4-dihydro-2H-1,4-benzoxazine-7-carbaldehyde","70.0 - 71.0","?C","343.5","K","","","","","","-","","-","","-","","-"
"CN1CCOC2=CC(Br)=CC=C12","-","-","-","7-Bromo-4-methyl-3,4-dihydro-2H-1,4-benzoxazine","47.0 - 49.0","?C","321.0","K","","","","","","-","","-","","-","","-"
"OC(=O)C1=CSC(=N1)C1=CN=CC=C1","-","-","-","2-(3-Pyridyl)-1,3-thiazole-4-carboxylic acid","283.0 - 284.0","?C","556.5","K","","","","","","-","","-","","-","","-"
"CC1=NC(=CS1)C1=CC(=NO1)C(O)=O","-","-","-","5-(2-Methyl-1,3-thiazol-4-yl)-3-isoxazolecarboxylic acid","166.0 - 167.0","?C","439.5","K","","","","","","-","","-","","-","","-"
"CC1=NC(=CS1)C1=CC(=NO1)C(Cl)=O","-","-","-","5-(2-Methyl-1,3-thiazol-4-yl)-3-isoxazolecarbonyl chloride","89.0 - 91.0","?C","363.0","K","","","","","","-","","-","","-","","-"
"CC1=NC(=CS1)C1=CC(CO)=NO1","-","-","-","[5-(2-Methyl-1,3-thiazol-4-yl)-3-isoxazolyl]methanol","120.0","?C","393.0","K","","","","","","-","","-","","-","","-"
"ClS(=O)(=O)C1=CC=C(S1)C1=CN=CO1","-","-","-","5-(1,3-Oxazol-5-yl)-2-thiophenesulfonyl chloride","80.0 - 82.0","?C","354.0","K","","","","","","-","","-","","-","","-"
"OC(=O)C1=CC=C(C=C1)C1=CN=CO1","-","-","-","4-(1,3-Oxazol-5-yl)benzoic acid","300.0 - 301.0","?C","573.5","K","","","","","","-","","-","","-","","-"
"ClS(=O)(=O)C1=CC=C(C=C1)C1=CN=CO1","-","-","-","4-(1,3-Oxazol-5-yl)benzenesulfonyl chloride","101.0","?C","374.0","K","","","","","","-","","-","","-","","-"
"BrC1=CC=C(C=C1)C1=CN=CO1","-","-","-","5-(4-Bromophenyl)-1,3-oxazole","78.0 - 79.0","?C","351.5","K","","","","","","-","","-","","-","","-"
"OC(=O)C1=CC=C(S1)C1=CC=CS1","-","-","-","2,2'-Bithiophene-5-carboxylic acid","177.0 - 178.0","?C","450.5","K","","","","","","-","","-","","-","","-"
"ClC(=O)C1=CC=C(S1)C1=CC=CS1","-","-","-","2,2'-Bithiophene-5-carbonyl chloride","73.3 - 74.4","?C","346.9","K","","","","","","-","","-","","-","","-"
"OCC1=CC=C(S1)C1=CC=CS1","-","-","-","2,2'-Bithien-5-ylmethanol","51.0 - 54.0","?C","325.5","K","","","","","","-","","-","","-","","-"
"CN1N=C(C)C(C(O)=O)=C1C","-","-","-","1,3,5-Trimethyl-1H-pyrazole-4-carboxylic acid","218.0 - 219.0","?C","491.5","K","","","","","","-","","-","","-","","-"
"CN1N=C(C)C(=C1C)S(Cl)(=O)=O","-","-","-","1,3,5-Trimethyl-1H-pyrazole-4-sulfonyl chloride","39.0 - 42.0","?C","313.5","K","","","","","","-","","-","","-","","-"
"CN1N=C(C)C(I)=C1C","-","-","-","4-Iodo-1,3,5-trimethyl-1H-pyrazole","72.0 - 74.0","?C","346.0","K","","","","","","-","","-","","-","","-"
"CC1=C(C=C(O1)C1=CC=CC=C1)C(Cl)=O","-","-","-","2-Methyl-5-phenylfuran-3-carbonyl chloride","85.0 - 88.0","?C","359.5","K","","","","","","-","","-","","-","","-"
"CC1=C(C=NN1C1=CC=CC=C1)C(Cl)=O","-","-","-","5-Methyl-1-phenyl-1H-pyrazole-4-carbonyl chloride","147.0 - 148.0","?C","420.5","K","","","","","","-","","-","","-","","-"
"CC1=C(C=NN1C1=CC=CC=C1)S(Cl)(=O)=O","-","-","-","5-Methyl-1-phenyl-1H-pyrazole-4-sulfonyl chloride","57.0","?C","330.0","K","","","","","","-","","-","","-","","-"
"CC1=C(C=O)C=NN1C1=CC=CC=C1","-","-","-","5-Methyl-1-phenyl-1H-pyrazole-4-carbaldehyde","76.0 - 77.0","?C","349.5","K","","","","","","-","","-","","-","","-"
"CC1=C(C=NN1C1=CC=CC=C1)C(=O)CBr","-","-","-","2-Bromo-1-(5-methyl-1-phenyl-1H-pyrazol-4-yl)-1-ethanone","94.0 - 96.0","?C","368.0","K","","","","","","-","","-","","-","","-"
"CC1=C(CO)C=NN1C1=CC=CC=C1","-","-","-","(5-Methyl-1-phenyl-1H-pyrazol-4-yl)methanol","88.0 - 89.0","?C","361.5","K","","","","","","-","","-","","-","","-"
"CC1=C(C(C)=NN1)C1=CC=CC=C1C(O)=O","-","-","-","2-(3,5-Dimethyl-1H-pyrazol-4-yl)benzoic acid","256.0","?C","529.0","K","","","","","","-","","-","","-","","-"
"CC1=NN(N=C1C(Cl)=O)C1=CC=CC=C1","-","-","-","5-Methyl-2-phenyl-2H-1,2,3-triazole-4-carbonyl chloride","104.0 - 105.0","?C","377.5","K","","","","","","-","","-","","-","","-"
"CC1=NN(N=C1CBr)C1=CC=CC=C1","-","-","-","4-(Bromomethyl)-5-methyl-2-phenyl-2H-1,2,3-triazole","72.0 - 73.0","?C","345.5","K","","","","","","-","","-","","-","","-"
"CC1=NN(N=C1CO)C1=CC=CC=C1","-","-","-","(5-Methyl-2-phenyl-2H-1,2,3-triazol-4-yl)methanol","75.0 - 76.0","?C","348.5","K","","","","","","-","","-","","-","","-"
"OC(=O)C1=CC2=C(NN=N2)C=C1","-","-","-","1H-1,2,3-Benzotriazole-5-carboxylic acid","305.0 - 307.0","?C","579.0","K","","","","","","-","","-","","-","","-"
"OC(=O)C1=CC=C(C=C1)C1=CSN=N1","-","-","-","4-(1,2,3-Thiadiazol-4-yl)benzoic acid","230.0","?C","503.0","K","","","","","","-","","-","","-","","-"
"ClC(=O)C1=CC=C(C=C1)C1=CSN=N1","-","-","-","4-(1,2,3-Thiadiazol-4-yl)benzoyl chloride","168.0 - 171.0","?C","442.5","K","","","","","","-","","-","","-","","-"
"BrCC1=CC=C(C=C1)C1=CSN=N1","-","-","-","4-[4-(Bromomethyl)phenyl]-1,2,3-thiadiazole","135.0 - 137.0","?C","409.0","K","","","","","","-","","-","","-","","-"
"BrC1=CC=C(C=C1)C1=CSN=N1","-","-","-","4-(4-Bromophenyl)-1,2,3-thiadiazole","154.0 - 156.0","?C","428.0","K","","","","","","-","","-","","-","","-"