"SMILES","CASRN","EXTERNALID","N","NAME","Melting Point","UNIT {Melting Point}","Melting Point {measured, converted}","UNIT {Melting Point}","Dataset","comment (property)","comment (chemical)","measurement method","Pressure","UNIT {Pressure}","Som set numeric condition","UNIT {Som set numeric condition}","Resp set numeric condition","UNIT {Resp set numeric condition}","Quality code","UNIT {Quality code}"
"NC(=O)CC1=CC=C(O)C=C1","-","-","-","4-Hydroxyphenylacetamide","176.0 - 180.0","?C","451.0","K","","","","","","-","","-","","-","","-"
"OC1(CCNCC1)C1=CC=C(Br)C=C1","-","-","-","4-(4-Bromophenyl)-4-piperidinol","163.0 - 168.0","?C","438.5","K","","","","","","-","","-","","-","","-"
"OCC1OC(OC1CO)C1=CC=CC=C1","-","-","-","(+)-2,3-O-Benzylidene-D-threitol","69.0 - 74.0","?C","344.5","K","","","","","","-","","-","","-","","-"
"CC(CP(C1=CC=CC=C1)C1=CC=CC=C1)P(C1=CC=CC=C1)C1=CC=CC=C1","-","-","-","(R)-(+)-Bis-(1,2-diphenylphosphino)propane","68.0 - 73.0","?C","343.5","K","","","","","","-","","-","","-","","-"
"O=C1CC2(CCCC2)CC(=O)N1","-","-","-","Tetramethylene glutarimide","153.0 - 155.0","?C","427.0","K","","","","","","-","","-","","-","","-"
"OCC(O)C1OC(=O)C(O)C1O","-","-","-","L(+)-Gulonic acid gamma-lactone","183.0 - 185.0","?C","457.0","K","","","","","","-","","-","","-","","-"
"CC(C)(C)C(CCC(O)=O)CC(O)=O","-","-","-","3-tert-Butyladipic acid","114.0 - 117.0","?C","388.5","K","","","","","","-","","-","","-","","-"
"CC1=C(Br)C(Br)=C(O)C(Br)=C1Br","-","-","-","2,3,5,6-Tetrabromo-4-methylphenol","195.0 - 200.0","?C","470.5","K","","","","","","-","","-","","-","","-"
"OCC(O)C(O)C=O","-","-","-","L(+)-Erythrose","164.0","?C","437.0","K","","","","","","-","","-","","-","","-"
"OCC1OC(C(O)C1O)N1C=C(F)C(=O)NC1=O","-","-","-","5-Fluorouridine","180.0 - 183.0","?C","454.5","K","","","","","","-","","-","","-","","-"
"NC1=NC=NC2=C1N=CN2C1OC(COP(O)(O)=O)C(O)C1O","-","-","-","Adenine-9-beta-D-arabinofuranoside-5'-monophosphate","213.0","?C","486.0","K","","","","","","-","","-","","-","","-"
"CC(=O)NC1=NC(O)=C2N=CNC2=N1","-","-","-","N-2-Acetylguanine","260.0","?C","533.0","K","","","","","","-","","-","","-","","-"
"CCCCCCC1=CC=C(C=C1)C(O)=O","-","-","-","4-Hexylbenzoic acid","94.0 - 99.0","?C","369.5","K","","","","","","-","","-","","-","","-"
"CC(=O)NC1=CC=C(F)C=C1Cl","-","-","-","2'-Chloro-4'-fluoroacetanilide","117.0 - 120.0","?C","391.5","K","","","","","","-","","-","","-","","-"
"OC1=C(C=O)C=C(Cl)C=C1C=O","-","-","-","2,6-Diformyl-4-chlorophenol","119.0 - 125.0","?C","395.0","K","","","","","","-","","-","","-","","-"
"CC1=CC(C=O)=C(O)C(C=O)=C1","-","-","-","2,6-Diformyl-4-methylphenol","127.0 - 131.0","?C","402.0","K","","","","","","-","","-","","-","","-"
"CCSC1=NN=C(N)S1","-","-","-","2-Amino-5-ethylthio-1,3,4-thiadiazole","133.0 - 136.0","?C","407.5","K","","","","","","-","","-","","-","","-"
"NC(=S)NNC(N)=S","-","-","-","2,5-DITHIOBIUREA","200.0 - 203.0","?C","474.5","K","","","","","","-","","-","","-","","-"
"NC1=CC=C(Br)C=C1C(=O)C1=C(F)C=CC=C1","-","-","-","2-Amino-2'-fluoro-5-bromobenzophenone","100.0 - 104.0","?C","375.0","K","","","","","","-","","-","","-","","-"
"CC(C)C1CCC(C)CC1OC(=O)C(C)O","-","-","-","(-)-Menthyl lactate","40.0","?C","313.0","K","","","","","","-","","-","","-","","-"
"OS(=O)(=O)C1=CC2=C(NC(=N2)C2=CC=CC=C2)C=C1","-","-","-","2-phenyl-1H-benzo[d]imidazole-5-sulfonic acid","300.0","?C","573.0","K","","","","","","-","","-","","-","","-"
"CN(CC(O)=O)C(=O)C1=CC=CC=C1","-","-","-","N-Methylhippuric acid","101.0 - 105.0","?C","376.0","K","","","","","","-","","-","","-","","-"
"C1CCC2NCCCC2C1","-","-","-","Decahydroquinoline","37.5 - 45.0","?C","314.2","K","","","","","","-","","-","","-","","-"
"CC1=CC(=CC=C1)C(=O)NCC(O)=O","-","-","-","3-Methylhippuric acid","138.0 - 142.0","?C","413.0","K","","","","","","-","","-","","-","","-"
"CC1(C)OC2C(CBr)OC(=O)C2O1","-","-","-","5-Bromo-5-deoxy-2,3-O-isopropylidene-D-ribonolactone","85.0 - 89.0","?C","360.0","K","","","","","","-","","-","","-","","-"
"COC(=O)C1=CC(O)=NO1","-","-","-","Methyl 3-hydroxyisoxazole-5-carboxylate","159.0 - 160.0","?C","432.5","K","","","","","","-","","-","","-","","-"
"NC(C(O)=O)C1=CCC=CC1","-","-","-","D(-)-2,5-Dihydrophenylglycine","260.0","?C","533.0","K","","","","","","-","","-","","-","","-"
"CC(=O)NC1=CC=C(Br)C=C1C","-","-","-","4'-bromo-2'-methylacetanilide","160.0 - 163.0","?C","434.5","K","","","","","","-","","-","","-","","-"
"FC1=CC(Br)=C(I)C(Br)=C1","-","-","-","1,3-dibromo-5-fluoro-2-iodobenzene","134.0 - 137.0","?C","408.5","K","","","","","","-","","-","","-","","-"
"[O-][N+](=O)C1=CC2=C(C=C1Cl)N=CC=N2","-","-","-","6-Chloro-7-nitroquinoxaline","210.0 - 213.0","?C","484.5","K","","","","","","-","","-","","-","","-"
"[O-][N+](=O)C1=CC2=C(C=C1Br)N=CC=N2","-","-","-","6-Bromo-7-nitroquinoxaline","221.0 - 227.0","?C","497.0","K","","","","","","-","","-","","-","","-"
"[O-][N+](=O)C1=CC2=C(C=C1[N+]([O-])=O)N=CC=N2","-","-","-","6,7-Dinitroquinoxaline","188.0 - 191.0","?C","462.5","K","","","","","","-","","-","","-","","-"
"COC1=CC=C(C=C1)C1=CC=C(OC)C=C1","-","-","-","4,4'-DIMETHOXYBIPHENYL","177.0 - 181.0","?C","452.0","K","","","","","","-","","-","","-","","-"
"O1C=NC=C1C1=CC=CC=C1","-","-","-","5-Phenyloxazole","37.0 - 39.0","?C","311.0","K","","","","","","-","","-","","-","","-"
"COC1=CC=C(C=C1)C(C=C(SC)SC)=C(C#N)C#N","-","-","-","2-(4-Methoxyphenyl)-4,4-bis(methylthio)-1,3-butadien-1,1-dicarbonitrile","149.0 - 152.0","?C","423.5","K","","","","","","-","","-","","-","","-"
"OC(=O)C1=CSC=C1C(O)=O","-","-","-","3,4-Thiophenedicarboxylic acid","227.0 - 231.0","?C","502.0","K","","","","","","-","","-","","-","","-"
"CC1=CC=C(C=C1)S(=O)(=O)OCC1CO1","-","-","-","(2S)-(+)-Glycidyl tosylate","45.0 - 48.0","?C","319.5","K","","","","","","-","","-","","-","","-"
"OC(C#CC#CC(O)(C1=CC=CC=C1)C1=C(Cl)C=CC=C1)(C1=CC=CC=C1)C1=CC=CC=C1Cl","-","-","-","(+)-1,6-Bis(2-chlorophenyl)-1,6-diphenyl-2,4-hexadiyne-1,6-diol","130.0 - 133.0","?C","404.5","K","","","","","","-","","-","","-","","-"
"[O-][N+](=O)C1=CC2=C(OCCOCCOCCOCCOCCO2)C=C1","-","-","-","Nitrobenzo-18-crown-6","85.0 - 88.0","?C","359.5","K","","","","","","-","","-","","-","","-"
"[O-][N+](=O)C1=CC2=C(OCCOCCOCCOCCO2)C=C1","-","-","-","Nitrobenzo-15-crown-5","95.0 - 98.0","?C","369.5","K","","","","","","-","","-","","-","","-"
"CC1CC(=O)C(=O)C1C","-","-","-","3,4-Dimethyl-1,2-cyclopentanedione","64.0 - 69.0","?C","339.5","K","","","","","","-","","-","","-","","-"
"CC(C)(C)OC(=O)NCCCC[C@H](NC(=O)OCC1C2=CC=CC=C2C2=CC=CC=C12)C(O)=O","-","-","-","Nalpha-Fmoc-Nepsilon-Boc-L-Lysine","134.0 - 137.0","?C","408.5","K","","","","","","-","","-","","-","","-"
"OC(=O)CNC(=O)OCC1C2=C(C=CC=C2)C2=C1C=CC=C2","-","-","-","Fmoc-glycine","174.0 - 178.0","?C","449.0","K","","","","","","-","","-","","-","","-"
"CCC(C)C(NC(=O)OCC1C2=C(C=CC=C2)C2=C1C=CC=C2)C(O)=O","-","-","-","2-{[(9H-fluoren-9-ylmethoxy)carbonyl]amino}-3-methylpentanoic acid","146.0 - 149.0","?C","420.5","K","","","","","","-","","-","","-","","-"
"CC(C)C(NC(=O)OCC1C2=C(C=CC=C2)C2=C1C=CC=C2)C(O)=O","-","-","-","Fmoc-L-Valine","143.0 - 147.0","?C","418.0","K","","","","","","-","","-","","-","","-"
"OC(=O)CCNC(=O)OCC1C2=C(C=CC=C2)C2=C1C=CC=C2","-","-","-","Fmoc-Beta-Alanine","144.0 - 148.0","?C","419.0","K","","","","","","-","","-","","-","","-"
"CC(C)CC(NC(=O)OCC1C2=C(C=CC=C2)C2=C1C=CC=C2)C(O)=O","-","-","-","Fmoc-L-leucine","153.0 - 157.0","?C","428.0","K","","","","","","-","","-","","-","","-"
"CSCCC(NC(=O)OCC1C2=C(C=CC=C2)C2=C1C=CC=C2)C(O)=O","-","-","-","Fmoc-L-Methionine","132.0 - 136.0","?C","407.0","K","","","","","","-","","-","","-","","-"
"CC(C)(C)OCC(NC(=O)OCC1C2=C(C=CC=C2)C2=C1C=CC=C2)C(O)=O","-","-","-","Fmoc-O-tert-butyl-L-serine","127.0 - 131.0","?C","402.0","K","","","","","","-","","-","","-","","-"
"CC(OC(C)(C)C)C(NC(=O)OCC1C2=C(C=CC=C2)C2=C1C=CC=C2)C(O)=O","-","-","-","Fmoc-O-tert-Butyl-L-threonine","131.0 - 134.0","?C","405.5","K","","","","","","-","","-","","-","","-"
"CC(C)(C)OC(=O)CC(NC(=O)OCC1C2=C(C=CC=C2)C2=C1C=CC=C2)C(O)=O","-","-","-","Fmoc-L-Aspartic acid beta-tert-butyl ester","147.0 - 151.0","?C","422.0","K","","","","","","-","","-","","-","","-"
"OC(=O)C(CCCCNC(=O)OCC1C2=C(C=CC=C2)C2=C1C=CC=C2)NC(=O)OCC1=CC=CC=C1","-","-","-","Nepsilon-Fmoc-Nalpha-CBZ-L-Lysine","101.0 - 105.0","?C","376.0","K","","","","","","-","","-","","-","","-"
"NC1C2CCC(C2)C1C(O)=O","-","-","-","3-exo-Aminobicyclo[2.2.1]heptane-2-exo-carboxylic acid","275.0 - 278.0","?C","549.5","K","","","","","","-","","-","","-","","-"
"OC1CCCCC1NCC1=CC=CC=C1","-","-","-","trans-2-Benzylamino-1-cyclohexanol","69.0 - 72.0","?C","343.5","K","","","","","","-","","-","","-","","-"
"COC1=C(OC)C=C2C(C)=NCCC2=C1","-","-","-","1-Methyl-6,7-dimethoxy-3,4-dihydroisoquinoline","103.0 - 106.0","?C","377.5","K","","","","","","-","","-","","-","","-"
"COC1=CC2=C(C=C1OC)C(=NCC2)C1=CC=CC=C1","-","-","-","1-Phenyl-6,7-dimethoxy-3,4-dihydroisoquinoline","121.0 - 125.0","?C","396.0","K","","","","","","-","","-","","-","","-"
"CCOC1=CC2=C(C=C1OCC)C(C)=NCC2","-","-","-","1-Methyl-6,7-diethoxy-3,4-dihydroisoquinoline","68.0 - 71.0","?C","342.5","K","","","","","","-","","-","","-","","-"
"COC1=C(OC)C=C2C(=S)NCCC2=C1","-","-","-","6,7-Dimethoxy-1,2,3,4-tetrahydroisoquinoline-1-thione","223.0 - 226.0","?C","497.5","K","","","","","","-","","-","","-","","-"
"COC1=C(O)C=C2C(C)=NCCC2=C1","-","-","-","1-Methyl-7-hydroxy-6-methoxy-3,4-dihydroisoquinoline","182.0 - 185.0","?C","456.5","K","","","","","","-","","-","","-","","-"
"CC1=CC=CC(C)=C1NC(=O)CN(CC(O)=O)CC(O)=O","-","-","-","N-(2,6-Dimethylphenylcarbamoylmethyl) iminodiacetic acid","213.0 - 216.0","?C","487.5","K","","","","","","-","","-","","-","","-"
"CC1=CC(C)=C(NC(=O)CN(CC(O)=O)CC(O)=O)C(C)=C1","-","-","-","N-(2,4,6-Trimethylphenylcarbamoylmethyl)imino-diacetic acid","218.0 - 221.0","?C","492.5","K","","","","","","-","","-","","-","","-"
"CCC1=CC=CC(CC)=C1NC(=O)CN(CC(O)=O)CC(O)=O","-","-","-","N-(2,6-Diethylphenylcarbamoylmethyl)iminodiacetic acid","187.0 - 190.0","?C","461.5","K","","","","","","-","","-","","-","","-"
"CC1=CC2=C(C=CC=C2)N=C1Cl","-","-","-","2-Chloro-3-methylquinoline","83.0 - 84.0","?C","356.5","K","","","","","","-","","-","","-","","-"
"C1CN1C1=NC(=NC(=N1)N1CC1)N1CC1","-","-","-","Triethylenemelamine","160.0","?C","433.0","K","","","","","","-","","-","","-","","-"
"S=P(N1CC1)(N1CC1)N1CC1","-","-","-","Triethylenethiophosphoramide","54.0 - 57.0","?C","328.5","K","","","","","","-","","-","","-","","-"
"OC(=O)C1=CC2=CC=C(C=C2C=C1)C(O)=O","-","-","-","2,6-Naphthalenedicarboxylic acid","300.0","?C","573.0","K","","","","","","-","","-","","-","","-"
"O=C(NC1=C(C=CC=C1)C(=O)C1=CC=CC=C1)C1CCCN1CC1=CC=CC=C1","-","-","-","(S)-2-[N'-(N-Benzylprolyl)amino]benzophenone","100.0 - 103.0","?C","374.5","K","","","","","","-","","-","","-","","-"
"CC1=CC=CC=C1C(=O)NCC(O)=O","-","-","-","2-Methylhippuric acid","161.0 - 165.0","?C","436.0","K","","","","","","-","","-","","-","","-"
"CC1=CC=C(C=C1)C(=O)NCC(O)=O","-","-","-","4-Methylhippuric acid","162.0 - 166.0","?C","437.0","K","","","","","","-","","-","","-","","-"
"CC(C)C(O)C(O)=O","-","-","-","(S)-(+)-2-Hydroxy-3-methylbutanoic acid","65.0 - 68.0","?C","339.5","K","","","","","","-","","-","","-","","-"
"CC(=O)C1=CN(C=C1)S(=O)(=O)C1=CC=CC=C1","-","-","-","3-Acetyl-1-(phenylsulfonyl)pyrrole","89.0 - 92.0","?C","363.5","K","","","","","","-","","-","","-","","-"
"CC1=CC=C(C=C1)S(=O)(=O)N1C=CC(=C1)C(O)=O","-","-","-","N-Tosyl-3-pyrrolecarboxylic acid","202.0 - 206.0","?C","477.0","K","","","","","","-","","-","","-","","-"
"O=C(OCC1=CC=CC=C1)N=NC(=O)OCC1=CC=CC=C1","-","-","-","Dibenzyl azodicarboxylate","44.0 - 52.0","?C","321.0","K","","","","","","-","","-","","-","","-"
"COC1OC(C(OC2OC(C(OC)C(O)C2O)C(O)=O)C(O)C1O)C(O)=O","-","-","","Alginic acid","300.0","?C","573.0","K","","","","","","-","","-","","-","","-"
"CC1(O)CSC(C)(O)CS1","-","-","-","2,5-Dihydroxy-2,5-dimethyl-1,4-dithiane","64.0 - 65.0","?C","337.5","K","","","","","","-","","-","","-","","-"
"C(OCC1=CC=CC=C1)C1OC=CC(OCC2=CC=CC=C2)C1OCC1=CC=CC=C1","-","-","-","1,5-Anhydro-3,4,6-tri-O-benzyl-2-deoxy-D- arabinohex-1-enitol","54.0 - 57.0","?C","328.5","K","","","","","","-","","-","","-","","-"
"CC(=O)NC1C(O)OC(CO)C(O)C1O","-","-","-","2-Acetamido-2-deoxy-D-glucopyranose","211.0","?C","484.0","K","","","","","","-","","-","","-","","-"
"CC(=O)NC1C(O)C(O)C(COC(C2=CC=CC=C2)(C2=CC=CC=C2)C2=CC=CC=C2)OC1OCC1=CC=CC=C1","-","-","-","Benzyl 2-acetamido-2-deoxy-6-O-triphenyl- methyl-alpha-D-glucopyranoside","102.0 - 107.0","?C","377.5","K","","","","","","-","","-","","-","","-"
"CNC1=C(C=CC(Cl)=C1)[N+]([O-])=O","-","-","-","5-Chloro-N-methyl-2-nitrobenzenamine","104.0 - 107.0","?C","378.5","K","","","","","","-","","-","","-","","-"
"COC1=C(Cl)C=C(C=C1Cl)[N+]([O-])=O","-","-","-","1,3-dichloro-2-methoxy-5-nitrobenzene","97.0 - 100.0","?C","371.5","K","","","","","","-","","-","","-","","-"
"OCC1OC(=O)C(O)C(O)C1O","-","-","-","delta-gluconolactone","151.0 - 155.0","?C","426.0","K","","","","","","-","","-","","-","","-"
"BrC1CC2=C(C=CC=C2)C1=O","-","-","-","2-Bromo-1-indanone","39.0 - 44.0","?C","314.5","K","","","","","","-","","-","","-","","-"
"BrC1=CC=C(C=C1)N1CCCC1=O","-","-","-","1-(4-Bromophenyl)-2-pyrrolidinone","98.0 - 101.0","?C","372.5","K","","","","","","-","","-","","-","","-"
"ClC1=CC=C(C=C1)N1CCCC1=O","-","-","-","1-(4-Chlorophenyl)-2-pyrrolidinone","95.0 - 98.0","?C","369.5","K","","","","","","-","","-","","-","","-"
"FC1=CC=C(C=C1)N1CCCC1=O","-","-","-","1-(4-Fluorophenyl)-2-pyrrolidinone","55.0 - 58.0","?C","329.5","K","","","","","","-","","-","","-","","-"
"CC1=CC=C(C=C1)N1CCCC1=O","-","-","-","1-(4-Methylphenyl)-2-pyrrolidinone","86.0 - 88.0","?C","360.0","K","","","","","","-","","-","","-","","-"
"[O-][N+](=O)C1=CC=C(C=C1)N1CCCC1=O","-","-","-","1-(4-Nitrophenyl)-2-pyrrolidinone","128.0 - 130.0","?C","402.0","K","","","","","","-","","-","","-","","-"
"FC(F)(F)C1=CC=C(C=C1)N1CCCC1=O","-","-","-","1-[4-(Trifluoromethyl)phenyl]-2-pyrrolidinone","134.0 - 136.0","?C","408.0","K","","","","","","-","","-","","-","","-"
"CCCCSCCC(N)C(O)=O","-","-","-","DL-Buthionine","238.0 - 243.0","?C","513.5","K","","","","","","-","","-","","-","","-"
"NC1=C(O)C=CC(=C1)C(O)=O","-","-","-","3-Amino-4-hydroxybenzoic acid","198.0 - 205.0","?C","474.5","K","","","","","","-","","-","","-","","-"
"OC1C(O)C(=CC(Cl)=C1Cl)C(O)=O","-","-","-","(2R,3R)-1-Carboxy-4,5-dichloro-2,3-dihydroxycyclohexa-4,6-diene","195.0 - 200.0","?C","470.5","K","","","","","","-","","-","","-","","-"
"CC1NC(=O)C(C)NC1=O","-","-","-","Alanine anhydride","274.0 - 278.0","?C","549.0","K","","","","","","-","","-","","-","","-"
"NC(=O)NC=O","-","-","-","N-Formylurea","170.0 - 173.0","?C","444.5","K","","","","","","-","","-","","-","","-"
"COC(=O)C1CC(=O)C(CC1=O)C(=O)OC","-","-","-","Dimethyl 1,4-cyclohexanedione-2,5-dicarboxylate","154.0 - 157.0","?C","428.5","K","","","","","","-","","-","","-","","-"
"CC1=CC(C)=C(C(N)=O)C(N)=N1","-","-","-","2-Amino-4,6-dimethyl-3-pyridinecarboxamide","172.0 - 174.0","?C","446.0","K","","","","","","-","","-","","-","","-"
"CC(=O)C1=C(C)C(C)(O)NC1=O","-","-","-","3-Acetyl-4,5-dimethyl-5-hydroxy-1,5-dihydro-2H-pyrrol-2-one","172.0 - 174.0","?C","446.0","K","","","","","","-","","-","","-","","-"
"CC(C)C1CCC(C)(OC(C)=O)C(CCC(C)=O)C1C#N","-","-","-","(1S,2S,3R,6S)-3-Acetoxy-3-methyl-6-(1-methylethyl)-2-(3-oxobutyl)cyclohexanenitrile","106.0 - 109.0","?C","380.5","K","","","","","","-","","-","","-","","-"
"CC1(C)C2CC(C)(C)OC(=O)C12","-","-","-","(1R)-Chrysanthemolactone","80.0 - 83.0","?C","354.5","K","","","","","","-","","-","","-","","-"
"CC1(C)N(O)C(C)(C)[N+]([O-])=C1C=NO","-","-","-","4-Hydroxyiminomethyl-2,2,5,5-tetramethyl-3-imidazoline-3-oxide-1-oxyl","157.0 - 159.0","?C","431.0","K","","","","","","-","","-","","-","","-"
"CCC1N(O)C(C)(C)N=C1C=NO","-","-","-","4-Hydroxyiminomethyl-2,2,5,5-tetramethyl-3-imidazoline-1-oxyl","163.0 - 164.0","?C","436.5","K","","","","","","-","","-","","-","","-"
"CCC1N(O)C(C)(C)N(C)C1=CC(=O)CI","-","-","-","4-(3-Iodo-2-oxopropylidene)-2,2,3,5,5-pentamethyl-imidazolidine-1-oxyl","126.0 - 127.0","?C","399.5","K","","","","","","-","","-","","-","","-"
"CC1(C)C=[N+]([O-])C(C)(C)N1O","-","-","-","1-Hydroxy-2,2,5,5-tetramethyl-3-imidazoline 3-oxide","160.0 - 163.0","?C","434.5","K","","","","","","-","","-","","-","","-"
"OC(=O)C1=CN(C2CC2)C2=CC(Cl)=C(F)C=C2C1=O","-","-","-","7-Chloro-1-cyclopropyl-6-fluoro-1,4-dihydro-4-oxoquinoline-3-carboxylic acid","239.0 - 244.0","?C","514.5","K","","","","","","-","","-","","-","","-"
"NC(CC=C)C(O)=O","-","-","-","(S)-(-)-2-Amino-4-pentenoic acid","253.0 - 255.0","?C","527.0","K","","","","","","-","","-","","-","","-"
"CC(C)(O)C(N)C(O)=O","-","-","-","(R,S)-2-Amino-3-hydroxy-3-methylbutanoic acid","200.0 - 202.0","?C","474.0","K","","","","","","-","","-","","-","","-"
"CC(C)(C)OC(=O)NC(CSCC1=CC=CC=C1)C(O)=O","-","-","-","Boc-S-Benzyl-L-cysteine","85.0 - 88.0","?C","359.5","K","","","","","","-","","-","","-","","-"
"CC(C)(C)OC(=O)NC(CCC(O)=O)C(O)=O","-","-","-","Boc-L-Glutamic acid","110.0 - 113.0","?C","384.5","K","","","","","","-","","-","","-","","-"
"CC(C)(C)OC(=O)NC(CCC(=O)OCC1=CC=CC=C1)C(O)=O","-","-","-","Boc-L-Glutamic acid 5-benzylester","65.0 - 68.0","?C","339.5","K","","","","","","-","","-","","-","","-"
"CCCCCCCCCCCCOC1OC(CO)C(OC2OC(CO)C(O)C(O)C2O)C(O)C1O","-","-","-","n-Dodecyl-beta-D-maltoside","217.0","?C","490.0","K","","","","","","-","","-","","-","","-"
"CC(=O)OC1C2=C(C)C(O)CC(O)(C(OC(=O)C3=CC=CC=C3)C3C4(COC4CC(O)C3(C)C1=O)OC(C)=O)C2(C)C","-","-","-","Baccatine III","229.0 - 234.0","?C","504.5","K","","","","","","-","","-","","-","","-"
"CSC1=NN=C(N)S1","-","-","-","2-Amino-5-methylthio-1,3,4-thiadiazole","176.0 - 180.0","?C","451.0","K","","","","","","-","","-","","-","","-"
"C1=CC=C2C(=C1)C1=CC=CC3=CC=C4C=CC=C2C4=C13","-","-","-","Benzo[e]pyrene","180.0 - 182.0","?C","454.0","K","","","","","","-","","-","","-","","-"
"[O-][N+](=O)C1=C(C=O)C=C(Cl)C=C1","-","-","-","5-Chloro-2-nitrobenzaldehyde","75.0 - 77.0","?C","349.0","K","","","","","","-","","-","","-","","-"
"ON1C(=O)C2=C(C=CC=C2)C1=O","-","-","-","N-HYDROXYPHTHALIMIDE","233.0 - 235.0","?C","507.0","K","","","","","","-","","-","","-","","-"
"ClC(C=O)C=O","-","-","-","2-Chloromalonaldehyde","140.0 - 145.0","?C","415.5","K","","","","","","-","","-","","-","","-"
"CC1=C(C=CO1)C(O)=O","-","-","-","2-methyl-3-furoic acid","102.0 - 105.0","?C","376.5","K","","","","","","-","","-","","-","","-"
"CC(C)(C)OC(=O)N1CCC(=O)CC1","-","-","-","N-(tert-Butoxycarbonyl)-4-piperidone","74.0 - 75.0","?C","347.5","K","","","","","","-","","-","","-","","-"
"OC1=CC=C2C=CC=CC2=C1CC1=C(O)C=CC2=CC=CC=C12","-","-","-","1,1-Methylene-di-2-naphthol","188.0 - 190.0","?C","462.0","K","","","","","","-","","-","","-","","-"
"NC1=CC(C(O)=O)=C(C=C1)[N+]([O-])=O","-","-","-","5-Amino-2-nitrobenzoic acid","234.0 - 242.0","?C","511.0","K","","","","","","-","","-","","-","","-"
"BrC1=CC=C2CC(=O)CCC2=C1","-","-","-","6-Bromo-2-tetralone","70.0 - 76.0","?C","346.0","K","","","","","","-","","-","","-","","-"
"CC(=O)C1=CC2=C(OCO2)C=C1","-","-","-","3,4-Methylenedioxyacetophenone","86.0 - 89.0","?C","360.5","K","","","","","","-","","-","","-","","-"
"COC(=O)C1=CC=C(CO)C=C1","-","-","-","Methyl 4-(hydroxymethyl)benzoate","45.0 - 50.0","?C","320.5","K","","","","","","-","","-","","-","","-"
"FC1=CC=C2C(=O)OC(=O)C2=C1","-","-","-","4-Fluorophthalic anhydride","75.0 - 78.0","?C","349.5","K","","","","","","-","","-","","-","","-"
"ClC1=CC(=O)C=CC1=O","-","-","-","2-Chloro-1,4-benzoquinone","52.0 - 57.0","?C","327.5","K","","","","","","-","","-","","-","","-"
"N#CCCSCCC#N","-","-","-","3,3'-Thiodipropionitrile","24.0 - 25.0","?C","297.5","K","","","","","","-","","-","","-","","-"
"NC1=C(Cl)C=CC(=C1)S(O)(=O)=O","-","-","-","3-Amino-4-chlorobenzenesulfonic acid hydrate","300.0","?C","573.0","K","","","","","","-","","-","","-","","-"