"SMILES","CASRN","EXTERNALID","N","NAME","Melting Point","UNIT {Melting Point}","Melting Point {measured, converted}","UNIT {Melting Point}","Dataset","comment (property)","comment (chemical)","measurement method","Pressure","UNIT {Pressure}","Som set numeric condition","UNIT {Som set numeric condition}","Resp set numeric condition","UNIT {Resp set numeric condition}","Quality code","UNIT {Quality code}"
"NC1=NN=C(N1)C1CCC1","-","-","-","5-Cyclobutyl-4H-1,2,4-triazol-3-ylamine","153.0 - 155.0","?C","427.0","K","","","","","","-","","-","","-","","-"
"CC1=NC2=CC(Cl)=CC=C2C=C1","-","-","-","7-Chloroquinaldine","74.0 - 78.0","?C","349.0","K","","","","","","-","","-","","-","","-"
"CCOC(=O)C1=NN=C(N)O1","-","-","-","5-Amino-1,3,4-oxadiazole-2-carboxylic acid ethylester","199.0 - 201.0","?C","473.0","K","","","","","","-","","-","","-","","-"
"OC1=CC=NC2=CC=C(C=C12)C(F)(F)F","-","-","-","6-(Trifluoromethyl)-4-quinolinol","265.0 - 268.0","?C","539.5","K","","","","","","-","","-","","-","","-"
"NNC(=O)C1=CC(F)=CC=C1","-","-","-","3-Fluorobenzhydrazide","138.0 - 139.0","?C","411.5","K","","","","","","-","","-","","-","","-"
"CC1=C(O)C=CC(=C1)C(O)=O","-","-","-","4-Hydroxy-3-methylbenzoic acid","174.0 - 175.0","?C","447.5","K","","","","","","-","","-","","-","","-"
"NC1=NN=C(N1)C1CC1","-","-","-","5-Cyclopropyl-1,2,4-triazol-3-ylamine","128.0 - 130.0","?C","402.0","K","","","","","","-","","-","","-","","-"
"CSC1=CC=CC=C1","-","-","-","thioanisole","-15.0","?C","258.0","K","","","","","","-","","-","","-","","-"
"CCOC(OCC)OCC","-","-","-","Triethyl orthoformate","-61.0","?C","212.0","K","","","","","","-","","-","","-","","-"
"CCOP(OCC)OCC","-","-","-","TRIETHYL PHOSPHITE","-112.0","?C","161.0","K","","","","","","-","","-","","-","","-"
"CC(=O)C(F)(F)F","-","-","-","1,1,1-TRIFLUOROACETONE","-78.0","?C","195.0","K","","","","","","-","","-","","-","","-"
"OCCCCC(O)CO","-","-","-","1,2,6-HEXANETRIOL","25.0 - 32.0","?C","301.5","K","","","","","","-","","-","","-","","-"
"CC(C)(C)C(Cl)=O","-","-","-","Trimethylacetyl chloride","-56.0","?C","217.0","K","","","","","","-","","-","","-","","-"
"CCCCCCCCN(CCCCCCCC)CCCCCCCC","-","-","-","TRI-N-OCTYLAMINE","34.0","?C","307.0","K","","","","","","-","","-","","-","","-"
"C1=CC=C(C=C1)C1=CC(=CC(=C1)C1=CC=CC=C1)C1=CC=CC=C1","-","-","-","1,3,5-Triphenylbenzene","172.0 - 175.0","?C","446.5","K","","","","","","-","","-","","-","","-"
"CCCCCCCCCCCN","-","-","-","n-Undecylamine","16.5","?C","289.5","K","","","","","","-","","-","","-","","-"
"C=CC1=C2C=CC=CC2=CC2=C1C=CC=C2","-","-","-","9-VINYLANTHRACENE","64.0 - 66.0","?C","338.0","K","","","","","","-","","-","","-","","-"
"CSCC1=CC=CC=C1","-","-","-","Benzyl methyl sulfide","-28.0","?C","245.0","K","","","","","","-","","-","","-","","-"
"CNC1CCCCC1","-","-","-","N-METHYLCYCLOHEXYLAMINE","-8.0","?C","265.0","K","","","","","","-","","-","","-","","-"
"CN(C)CCCCCCN(C)C","-","-","-","N,N,N',N'-Tetramethyl-1,6-hexanediamine","-46.0","?C","227.0","K","","","","","","-","","-","","-","","-"
"OCC(O)CCl","-","-","-","3-Chloro-1,2-propanediol","-40.0","?C","233.0","K","","","","","","-","","-","","-","","-"
"O=C(N1CCC(=O)CC1)C1=CC=CC=C1","-","-","-","N-Benzoyl-4-piperidone","56.0 - 59.0","?C","330.5","K","","","","","","-","","-","","-","","-"
"CC(=C)CCl","-","-","-","3-CHLORO-2-METHYLPROPENE","-80.0","?C","193.0","K","","","","","","-","","-","","-","","-"
"CC1=CC(C)=C(N)C=C1","-","-","-","2,4-Dimethylaniline","16.0","?C","289.0","K","","","","","","-","","-","","-","","-"
"COC(=O)CC#N","-","-","-","METHYL CYANOACETATE","-13.0","?C","260.0","K","","","","","","-","","-","","-","","-"
"COCCOCCO","-","-","-","2-(2-Methoxyethoxy)ethanol","-70.0","?C","203.0","K","","","","","","-","","-","","-","","-"
"CCC(CC)C(O)=O","-","-","-","2-ethylbutyric acid","-14.0","?C","259.0","K","","","","","","-","","-","","-","","-"
"CC(=C)CO","-","-","-","2-Methyl-2-propen-1-ol","-50.0","?C","223.0","K","","","","","","-","","-","","-","","-"
"CC(O)CC(C)(C)O","-","-","-","2-METHYL-2,4-PENTANEDIOL","-40.0","?C","233.0","K","","","","","","-","","-","","-","","-"
"CCOC(=O)C1=C(O)C=CC=C1","-","-","-","Ethyl salicylate","2.0 - 3.0","?C","275.5","K","","","","","","-","","-","","-","","-"
"CCCC(=O)OCC(COC(=O)CCC)OC(=O)CCC","-","-","-","TRIBUTYRIN","-75.0","?C","198.0","K","","","","","","-","","-","","-","","-"
"BrC(=O)C(Br)=O","-","-","-","Oxalyl bromide","-19.0","?C","254.0","K","","","","","","-","","-","","-","","-"
"CC(C)CC1=CC=CC=C1","-","-","-","isobutylbenzene","-51.0","?C","222.0","K","","","","","","-","","-","","-","","-"
"CCCCCC1=CC=CC=C1","-","-","-","1-pentylbenzene","-75.0","?C","198.0","K","","","","","","-","","-","","-","","-"
"CCO[Si](CCCN)(OCC)OCC","-","-","-","3-Aminopropyltriethoxysilane","-70.0","?C","203.0","K","","","","","","-","","-","","-","","-"
"CC1=CC=CC(C)=C1Br","-","-","-","2-Bromo-m-xylene","-10.0","?C","263.0","K","","","","","","-","","-","","-","","-"
"CC(N)CN","-","-","-","1,2-DIAMINOPROPANE","-37.0","?C","236.0","K","","","","","","-","","-","","-","","-"
"CC1=C(C=O)C=CC=C1","-","-","-","o-Tolualdehyde","-35.0","?C","238.0","K","","","","","","-","","-","","-","","-"
"OCCCCCCCCC=C","-","-","-","9-Decen-1-ol","-13.0","?C","260.0","K","","","","","","-","","-","","-","","-"
"OC1CCOC2=C1C=CC=C2","-","-","-","4-Chromanol","41.0 - 45.0","?C","316.0","K","","","","","","-","","-","","-","","-"
"OC1=CC=C2C(=O)C3=C(C=CC=C3)C(=O)C2=C1O","-","-","-","alizarin","287.0 - 289.0","?C","561.0","K","","","","","","-","","-","","-","","-"
"BrC1=CC=CS1","-","-","-","2-BROMOTHIOPHENE","-10.0","?C","263.0","K","","","","","","-","","-","","-","","-"
"CCCCN(CCO)CCO","-","-","-","N-N-Butyldiethanolamine","-70.0","?C","203.0","K","","","","","","-","","-","","-","","-"
"O=C(C1CC1)C1=CC=CC=C1","-","-","-","Cyclopropyl phenyl ketone","7.0 - 9.0","?C","281.0","K","","","","","","-","","-","","-","","-"
"COC1=CC=CC(CO)=C1OC","-","-","-","2,3-Dimethoxybenzyl alcohol","48.0 - 51.0","?C","322.5","K","","","","","","-","","-","","-","","-"
"CC(C)CCN","-","-","-","ISOAMYLAMINE","-60.0","?C","213.0","K","","","","","","-","","-","","-","","-"
"CNCCCN","-","-","-","N-Methyl-1,3-propanediamine","-72.0","?C","201.0","K","","","","","","-","","-","","-","","-"
"CN(C)CCCCN(C)C","-","-","-","N,N,N',N'-Tetramethyl-1,4-butanediamine","-100.0","?C","173.0","K","","","","","","-","","-","","-","","-"
"NCCCNCCN","-","-","-","N-(2-Aminoethyl)-1,3-propanediamine","10.0","?C","283.0","K","","","","","","-","","-","","-","","-"
"CCCCCC(O)C#C","-","-","-","1-octyn-3-ol","-60.0","?C","213.0","K","","","","","","-","","-","","-","","-"
"NCCNCCO","-","-","-","2-(2-AMINOETHYLAMINO)ETHANOL","-28.0","?C","245.0","K","","","","","","-","","-","","-","","-"
"BrCCCCCBr","-","-","-","1,5-DIBROMOPENTANE","-34.0","?C","239.0","K","","","","","","-","","-","","-","","-"
"CCN(CCO)C1=CC(C)=CC=C1","-","-","-","2-(N-Ethyl-m-toluidino)ethanol","-19.0","?C","254.0","K","","","","","","-","","-","","-","","-"
"CCCCC(C)O","-","-","-","2-hexanol","-23.0","?C","250.0","K","","","","","","-","","-","","-","","-"
"CC(=C)C(=O)OCCO","-","-","-","2-HYDROXYETHYL METHACRYLATE","-12.0","?C","261.0","K","","","","","","-","","-","","-","","-"
"CC(O[Si](C)(C)C)=N[Si](C)(C)C","-","-","-","N,O-Bis(trimethylsilyl)acetamide","24.0","?C","297.0","K","","","","","","-","","-","","-","","-"
"CCOC(CC(OCC)OCC)OCC","-","-","-","Malonaldehyde bis(diethyl acetal)","-90.0","?C","183.0","K","","","","","","-","","-","","-","","-"
"CC1(C)C(O)C(C)(C)C1O","-","-","-","2,2,4,4-Tetramethyl-1,3-cyclobutanediol","126.0 - 134.0","?C","403.0","K","","","","","","-","","-","","-","","-"
"C=CCCCCCCCCC=O","-","-","-","Undecylenic aldehyde","7.0","?C","280.0","K","","","","","","-","","-","","-","","-"
"C=CC1=NC=CC=C1","-","-","-","2-VINYLPYRIDINE","-50.0","?C","223.0","K","","","","","","-","","-","","-","","-"
"CCOC(=O)CBr","-","-","-","Ethyl bromoacetate","-38.0","?C","235.0","K","","","","","","-","","-","","-","","-"
"CCCCCN","-","-","-","N-AMYLAMINE","-50.0","?C","223.0","K","","","","","","-","","-","","-","","-"
"CN1C=CN=C1C","-","-","-","1,2-Dimethylimidazole","37.0 - 39.0","?C","311.0","K","","","","","","-","","-","","-","","-"
"CC1=C(C)C2(C)C(C)=C(C)C12C","-","-","-","Hexamethyl dewar benzene","0.7","?C","273.7","K","","","","","","-","","-","","-","","-"
"CCCCCC(=O)CC","-","-","-","3-OCTANONE","-23.0","?C","250.0","K","","","","","","-","","-","","-","","-"
"CN(C)CC1=CC=CC=C1","-","-","-","N,N-DIMETHYLBENZYLAMINE","-75.0","?C","198.0","K","","","","","","-","","-","","-","","-"
"CCC1=NCCO1","-","-","-","2-Ethyl-2-oxazoline","-62.0","?C","211.0","K","","","","","","-","","-","","-","","-"
"C1CN=C2CCCCCN2C1","-","-","-","1,8-Diazabicyclo[5.4.0]undec-7-ene","-70.0","?C","203.0","K","","","","","","-","","-","","-","","-"
"COC(=O)C(C)Cl","-","-","-","METHYL 2-CHLOROPROPIONATE","-10.0","?C","263.0","K","","","","","","-","","-","","-","","-"
"S=C=NC1=CC=CC=C1","-","-","-","Phenyl isothiocyanate","-21.0","?C","252.0","K","","","","","","-","","-","","-","","-"
"COC1=CC=CC(O)=C1","-","-","-","3-Methoxyphenol","-17.0","?C","256.0","K","","","","","","-","","-","","-","","-"
"OCCCC1=CC=CC=C1","-","-","-","3-Phenyl-1-propanol","-18.0","?C","255.0","K","","","","","","-","","-","","-","","-"
"CN(C)P(N(C)C)N(C)C","-","-","-","Hexamethylphosphorous triamide","-44.0","?C","229.0","K","","","","","","-","","-","","-","","-"
"COCCN","-","-","-","2-Methoxyethylamine","-82.0","?C","191.0","K","","","","","","-","","-","","-","","-"
"O=C1CCCCO1","-","-","-","delta-Valerolactone","-13.0","?C","260.0","K","","","","","","-","","-","","-","","-"
"CC1=CC(=O)CC1","-","-","-","3-METHYL-2-CYCLOPENTEN-1-ONE","3.0 - 5.0","?C","277.0","K","","","","","","-","","-","","-","","-"
"FC1=C(C=CC=C1)C(Cl)(Cl)Cl","-","-","-","2-Fluorobenzotrichloride","-20.0","?C","253.0","K","","","","","","-","","-","","-","","-"
"ClC(Cl)C(=O)OC(=O)C(Cl)Cl","-","-","-","Dichloroacetic anhydride","29.0","?C","302.0","K","","","","","","-","","-","","-","","-"
"CC1CCC2C(C1)C(=O)OC2=O","-","-","-","Hexahydro-4-methylphthalic anhydride","-29.0","?C","244.0","K","","","","","","-","","-","","-","","-"
"CC(C)C(O)C(C)C","-","-","-","2,4-dimethyl-3-pentanol","-70.0","?C","203.0","K","","","","","","-","","-","","-","","-"
"CC1=CC(C)=C(C=O)C=C1","-","-","-","2,4-Dimethylbenzaldehyde","-9.0","?C","264.0","K","","","","","","-","","-","","-","","-"
"ClC(=O)C=CC(Cl)=O","-","-","-","FUMARYL CHLORIDE","-2.0","?C","271.0","K","","","","","","-","","-","","-","","-"
"COC1=CC(C)=C(C=O)C=C1C","-","-","-","2,5-Dimethyl-p-anisaldehyde","31.0 - 35.0","?C","306.0","K","","","","","","-","","-","","-","","-"
"C[Si](C)(C)N1C=CN=C1","-","-","-","N-(Trimethylsilyl)imidazole","-42.0","?C","231.0","K","","","","","","-","","-","","-","","-"
"COC1=C2C=CC=CC2=CC=C1","-","-","-","1-METHOXYNAPHTHALENE","5.0","?C","278.0","K","","","","","","-","","-","","-","","-"
"ClC1CCCC1","-","-","-","Cyclopentyl chloride","-50.0","?C","223.0","K","","","","","","-","","-","","-","","-"
"CC1CCCO1","-","-","-","2-methyltetrahydrofuran","-136.0","?C","137.0","K","","","","","","-","","-","","-","","-"
"CCNCCO","-","-","-","2-(ETHYLAMINO)ETHANOL","-6.0","?C","267.0","K","","","","","","-","","-","","-","","-"
"CC1=C(C=CC=C1)C(=O)C1=CC=CC=C1","-","-","-","2-Methylbenzophenone","-18.0","?C","255.0","K","","","","","","-","","-","","-","","-"
"COC1=CC=C(Cl)C=C1","-","-","-","4-Chloroanisole","-18.0","?C","255.0","K","","","","","","-","","-","","-","","-"
"C1OC2=C(O1)C=CC=C2","-","-","-","1,3-benzodioxole","-18.0","?C","255.0","K","","","","","","-","","-","","-","","-"
"COC1=CC(OC)=C(CO)C=C1","-","-","-","2,4-Dimethoxybenzyl alcohol","37.0 - 40.0","?C","311.5","K","","","","","","-","","-","","-","","-"
"O=C1CCCCCCCCCCCC1","-","-","-","Cyclotridecanone","25.0","?C","298.0","K","","","","","","-","","-","","-","","-"
"ClC(C=O)=CC1=CC=CC=C1","-","-","-","alpha-Chlorocinnamaldehyde","20.0 - 22.0","?C","294.0","K","","","","","","-","","-","","-","","-"
"NC1=CC2=C(OCO2)C=C1","-","-","-","3,4-(Methylenedioxy)aniline","38.0 - 43.0","?C","313.5","K","","","","","","-","","-","","-","","-"
"N#CCC1=CC2=CC=CC=C2C=C1","-","-","-","2-Naphthylacetonitrile","78.0 - 88.0","?C","356.0","K","","","","","","-","","-","","-","","-"
"[O-][N+](=O)C1=C(C=C(Cl)C=C1)[N+]([O-])=O","-","-","-","1-Chloro-3,4-dinitrobenzene","40.0 - 41.0","?C","313.5","K","","","","","","-","","-","","-","","-"
"SC1=C(Cl)C=C(Cl)C(Cl)=C1","-","-","-","2,4,5-Trichlorothiophenol","117.0 - 118.0","?C","390.5","K","","","","","","-","","-","","-","","-"
"O=C1CCCCCO1","-","-","-","epsilon-Caprolactone monomer","-1.0","?C","272.0","K","","","","","","-","","-","","-","","-"
"COC1=CC=C(CC#N)C=C1","-","-","-","2-(4-methoxyphenyl)acetonitrile","8.0","?C","281.0","K","","","","","","-","","-","","-","","-"
"COC(OC)C(C)=O","-","-","-","Pyruvic aldehyde dimethyl acetal","-57.0","?C","216.0","K","","","","","","-","","-","","-","","-"
"COCCOCCOCCOCCOC","-","-","-","Tetraethylene glycol dimethyl ether","-30.0","?C","243.0","K","","","","","","-","","-","","-","","-"
"CC(C)C1=CC=C(N)C=C1","-","-","-","4-Isopropylaniline","-63.0","?C","210.0","K","","","","","","-","","-","","-","","-"
"CCC1=CC=CC(N)=C1","-","-","-","3-Ethylaniline","-8.0","?C","265.0","K","","","","","","-","","-","","-","","-"
"CNC1=CC=C(OC)C=C1","-","-","-","N-Methyl-p-anisidine","33.0 - 36.0","?C","307.5","K","","","","","","-","","-","","-","","-"
"NCC1CCCC(CN)C1","-","-","-","1,3-Cyclohexanebis(methylamine)","-70.0","?C","203.0","K","","","","","","-","","-","","-","","-"
"CN(C)C1=CC(C)=CC=C1","-","-","-","N,N-dimethyl-m-toluidine","-15.0","?C","258.0","K","","","","","","-","","-","","-","","-"
"COC(=O)C(Cl)C(C)=O","-","-","-","Methyl 2-chloroacetoacetate","-33.0","?C","240.0","K","","","","","","-","","-","","-","","-"
"CCCCOC(Cl)=O","-","-","-","Butyl chloroformate","-70.0","?C","203.0","K","","","","","","-","","-","","-","","-"
"C1COCO1","-","-","-","1,3-DIOXOLANE","-26.0","?C","247.0","K","","","","","","-","","-","","-","","-"
"ClC(=O)C1=C(Cl)C=CC=C1Cl","-","-","-","2,6-Dichlorobenzoyl chloride","18.0","?C","291.0","K","","","","","","-","","-","","-","","-"
"CC12CC3CC(C1)CC(C)(C3)C2","-","-","-","1,3-DIMETHYLADAMANTANE","-30.0","?C","243.0","K","","","","","","-","","-","","-","","-"
"OCC1=C(CC2=CC=CC=C2)C=CC=C1","-","-","-","2-Benzylbenzyl alcohol","37.0 - 41.0","?C","312.0","K","","","","","","-","","-","","-","","-"
"CCOC1=C(OC)C=C(CO)C=C1","-","-","-","4-Ethoxy-3-methoxybenzyl alcohol","54.0 - 59.0","?C","329.5","K","","","","","","-","","-","","-","","-"
"COC1=C(C=CC=C1)C(C)O","-","-","-","DL-2-Methoxy-alpha-methylbenzyl alcohol","37.0 - 39.0","?C","311.0","K","","","","","","-","","-","","-","","-"
"COC(=O)C1=C(C)OC(=O)C=C1C","-","-","-","Methyl isodehydroacetate","66.0 - 70.0","?C","341.0","K","","","","","","-","","-","","-","","-"
"CCC(C)C(N)CO","-","-","-","L(+)-Isoleucinol","36.0 - 39.0","?C","310.5","K","","","","","","-","","-","","-","","-"
"CC(N)CO","-","-","-","DL-2-Amino-1-propanol","8.0","?C","281.0","K","","","","","","-","","-","","-","","-"
"CC1=C(C=C(CCl)C=C1)[N+]([O-])=O","-","-","-","4-Methyl-3-nitrobenzyl chloride","46.0 - 50.0","?C","321.0","K","","","","","","-","","-","","-","","-"
"CCCCCCC(=O)OC(=O)CCCCCC","-","-","-","Heptanoic anhydride","-12.0","?C","261.0","K","","","","","","-","","-","","-","","-"
"O=CC1=CSC=C1","-","-","-","3-THIOPHENECARBOXALDEHYDE","-30.0","?C","243.0","K","","","","","","-","","-","","-","","-"
"CC1=NC=CN=C1C","-","-","-","2,3-DIMETHYLPYRAZINE","11.0 - 13.0","?C","285.0","K","","","","","","-","","-","","-","","-"
"NC1=NC(=O)NC=C1","-","-","-","cytosine","300.0","?C","573.0","K","","","","","","-","","-","","-","","-"
"NC1=C(Cl)C=CC(=C1)S(F)(=O)=O","-","-","-","3-Amino-4-chlorobenzenesulfonyl fluoride","64.0 - 68.0","?C","339.0","K","","","","","","-","","-","","-","","-"
"OC(=O)C1=C(Cl)C=CC(=C1)S(F)(=O)=O","-","-","-","2-Chloro-5-(fluorosulfonyl)benzoic acid","148.0 - 151.0","?C","422.5","K","","","","","","-","","-","","-","","-"
"NC1=NC(=NS1)C1=CC=CC=C1","-","-","-","5-Amino-3-phenyl-1,2,4-thiadiazole","152.0 - 156.0","?C","427.0","K","","","","","","-","","-","","-","","-"
"CC1=CC(O)=C(C=C1Cl)C(=O)C1=CC=CC=C1","-","-","-","5-Chloro-2-hydroxy-4-methylbenzophenone","138.0 - 142.0","?C","413.0","K","","","","","","-","","-","","-","","-"
"S=C=NC12CC3CC(CC(C3)C1)C2","-","-","-","1-Adamantyl isothiocyanate","166.0 - 168.0","?C","440.0","K","","","","","","-","","-","","-","","-"
"CCCCCCCCCCCCCCCCS(=O)(=O)C1=CC=C(N)C=C1","-","-","-","4-Hexadecylsulfonylaniline","115.0 - 117.0","?C","389.0","K","","","","","","-","","-","","-","","-"
"OC(=O)C1=CC2=C(N1)C=CC(O)=C2","-","-","-","5-Hydroxy-2-indolecarboxylic acid","249.0","?C","522.0","K","","","","","","-","","-","","-","","-"
"OC(=O)C1=CC(=C2C=CC=CC2=C1O)S(F)(=O)=O","-","-","-","4-Fluorosulfonyl-1-hydroxy-2-naphthoic acid","300.0","?C","573.0","K","","","","","","-","","-","","-","","-"
"COC1=CC(C=CC(O)=O)=C(OC)C=C1","-","-","-","2,5-Dimethoxycinnamic acid","147.0 - 150.0","?C","421.5","K","","","","","","-","","-","","-","","-"
"OCC(Br)=C(Br)CO","-","-","-","trans-2,3-Dibromo-2-butene-1,4-diol","111.0 - 116.0","?C","386.5","K","","","","","","-","","-","","-","","-"
"OC(=O)C=CC1=C(Cl)C=CC=C1Cl","-","-","-","2,6-Dichlorocinnamic acid","192.0 - 196.0","?C","467.0","K","","","","","","-","","-","","-","","-"
"CCOC(=O)CCCCCCCCCCCCC(=O)OCC","-","-","-","Diethyl tetradecanedioate","28.0 - 31.0","?C","302.5","K","","","","","","-","","-","","-","","-"
"CC1=NC(=CS1)C1=CC=C(C=C1)C1=CC=CC=C1","-","-","-","4-(4-Biphenylyl)-2-methylthiazole","113.0 - 118.0","?C","388.5","K","","","","","","-","","-","","-","","-"
"CC1=CC=C(O)C(CO)=N1","-","-","-","2,6-Lutidine-alpha2,3-diol","157.0 - 159.0","?C","431.0","K","","","","","","-","","-","","-","","-"
"NC1=NC=CC=C1OCC1=CC=CC=C1","-","-","-","2-Amino-3-benzyloxypyridine","94.0 - 98.0","?C","369.0","K","","","","","","-","","-","","-","","-"
"OC(=O)C(=CC1=CC(O)=CC=C1)C#N","-","-","-","alpha-Cyano-3-hydroxycinnamic acid","230.0 - 233.0","?C","504.5","K","","","","","","-","","-","","-","","-"
"BrC1CCC(Br)C(Br)CCC(Br)C(Br)CCC1Br","-","-","-","1,2,5,6,9,10-HEXABROMOCYCLODODECANE","173.0 - 177.0","?C","448.0","K","","","","","","-","","-","","-","","-"
"OC(=O)C1OC(C(C1C(O)=O)C(O)=O)C(O)=O","-","-","-","Tetrahydrofuran-2,3,4,5-tetracarboxylic acid","205.0 - 210.0","?C","480.5","K","","","","","","-","","-","","-","","-"
"NC1=C2C=CC=NC2=CC=C1[N+]([O-])=O","-","-","-","5-Amino-6-nitroquinoline","272.0 - 273.0","?C","545.5","K","","","","","","-","","-","","-","","-"
"CC(=O)OCC1=CC=C(O1)C=O","-","-","-","5-Acetoxymethyl-2-furaldehyde","52.0 - 56.0","?C","327.0","K","","","","","","-","","-","","-","","-"
"OC(=O)C(=CC1=CC=C(O)C=C1)C#N","-","-","-","alpha-Cyano-4-hydroxycinnamic acid","250.0 - 253.0","?C","524.5","K","","","","","","-","","-","","-","","-"
"CN(C)C1=CC=C(C=CC#N)C=C1","-","-","-","4-Dimethylaminocinnamonitrile","165.0 - 168.0","?C","439.5","K","","","","","","-","","-","","-","","-"
"NC(CC1=CC=C(O)C=C1)C(O)=O","-","-","-","DL-Tyrosine","325.0","?C","598.0","K","","","","","","-","","-","","-","","-"
"C=CC(=O)NCNC(=O)C=C","-","-","-","N,N'-Methylenebisacrylamide","300.0","?C","573.0","K","","","","","","-","","-","","-","","-"
"OC(=O)C=CC1=CC=C2OCOC2=C1","-","-","-","3,4-(METHYLENEDIOXY)CINNAMIC ACID","242.0 - 244.0","?C","516.0","K","","","","","","-","","-","","-","","-"
"NC1=CC2=C(C=C(C=C2C=C1)S(O)(=O)=O)S(O)(=O)=O","-","-","-","7-Amino-1,3-naphthalenedisulfonic acid","300.0","?C","573.0","K","","","","","","-","","-","","-","","-"
"COC1=CC=C(CNC2=NC=CC=C2)C=C1","-","-","-","2-(4-Methoxybenzylamino)pyridine","121.0 - 126.0","?C","396.5","K","","","","","","-","","-","","-","","-"
"N#CC(=CC1=CC=CC=C1)C#N","-","-","-","Benzylidenemalononitrile","82.0 - 86.0","?C","357.0","K","","","","","","-","","-","","-","","-"