"SMILES","CASRN","EXTERNALID","N","NAME","Melting Point","UNIT {Melting Point}","Melting Point {measured, converted}","UNIT {Melting Point}","Dataset","comment (property)","comment (chemical)","measurement method","Pressure","UNIT {Pressure}","Som set numeric condition","UNIT {Som set numeric condition}","Resp set numeric condition","UNIT {Resp set numeric condition}","Quality code","UNIT {Quality code}"
"COC1=CC=CC=C1C1=NC(CCl)=NO1","-","-","-","3-(Chloromethyl)-5-(2-methoxyphenyl)-1,2,4-oxadiazole","66.0 - 67.0","?C","339.5","K","","","","","","-","","-","","-","","-"
"COC1=CC=C(C=C1)C1=NC(CCl)=NO1","-","-","-","3-(Chloromethyl)-5-(4-methoxyphenyl)-1,2,4-oxadiazole","60.0 - 62.0","?C","334.0","K","","","","","","-","","-","","-","","-"
"FC(F)(F)C1=CC=CC(=C1)C1=NC(CCl)=NO1","-","-","-","3-(Chloromethyl)-5-[3-(trifluoromethyl)phenyl]-1,2,4-oxadiazole","34.0 - 35.0","?C","307.5","K","","","","","","-","","-","","-","","-"
"COC(=O)C1=C(C)NC(C)=C(C1C1=CC=C(OC)C=C1)C(=O)OC","-","-","-","Dimethyl 4-(4-methoxyphenyl)-2,6-dimethyl-1,4-dihydropyridine-3,5-dicarboxylate","173.0 - 177.0","?C","448.0","K","","","","","","-","","-","","-","","-"
"CC1=CN(CCC(O)=O)C2=C1C=CC=C2","-","-","-","3-(3-Methyl-1H-indol-1-yl)propanoic acid","87.0 - 88.0","?C","360.5","K","","","","","","-","","-","","-","","-"
"CN(N)C1=CC=C(C=N1)C(F)(F)F","-","-","-","1-Methyl-1-[5-(trifluoromethyl)-2-pyridyl]hydrazine","52.0 - 55.0","?C","326.5","K","","","","","","-","","-","","-","","-"
"OC(=O)C1=COC2=C1C(=O)CCC2","-","-","-","4-Oxo-4,5,6,7-tetrahydrobenzo[b]furan-3-carboxylic acid","140.0 - 143.0","?C","414.5","K","","","","","","-","","-","","-","","-"
"ClC1=C(Br)C=C(S1)S(Cl)(=O)=O","-","-","-","4-Bromo-5-chlorothiophene-2-sulfonyl chloride","63.0 - 65.0","?C","337.0","K","","","","","","-","","-","","-","","-"
"ClC1=CC(Br)=C(S1)S(Cl)(=O)=O","-","-","-","3-Bromo-5-chlorothiophene-2-sulfonyl chloride","34.0 - 36.0","?C","308.0","K","","","","","","-","","-","","-","","-"
"COC(=O)C1=C(N)C(=C(S1)C(F)(F)F)C1=CC=CC=C1","-","-","-","Methyl 3-amino-4-phenyl-5-(trifluoromethyl)thiophene-2-carboxylate","119.0 - 120.0","?C","392.5","K","","","","","","-","","-","","-","","-"
"COC(=O)C1=C(Br)C=CS1","-","-","-","Methyl 3-bromothiophene-2-carboxylate","50.0 - 51.0","?C","323.5","K","","","","","","-","","-","","-","","-"
"ClC1=CC=C(C=C1)C1=C(C=O)C2=C(N1)C=CC=C2","-","-","-","2-(4-Chlorophenyl)-1H-indole-3-carbaldehyde","257.0 - 258.0","?C","530.5","K","","","","","","-","","-","","-","","-"
"CC(=O)C1=CSC(=C1)[N+]([O-])=O","-","-","-","1-(5-Nitro-3-thienyl)ethan-1-one","59.0 - 61.0","?C","333.0","K","","","","","","-","","-","","-","","-"
"CC1=NC=C(C#N)C(N)=N1","-","-","-","4-Amino-2-methylpyrimidine-5-carbonitrile","249.0 - 252.0","?C","523.5","K","","","","","","-","","-","","-","","-"
"COC(=O)C1=C(C(=C(S1)C(F)(F)F)C1=CC=CC=C1)S(Cl)(=O)=O","-","-","-","Methyl 3-(chlorosulfonyl)-4-phenyl-5-(trifluoromethyl)thiophene-2-carboxylate","74.0 - 75.0","?C","347.5","K","","","","","","-","","-","","-","","-"
"NC(=S)C1=NC=CN=C1","-","-","-","Pyrazine-2-carbothioamide","200.0 - 202.0","?C","474.0","K","","","","","","-","","-","","-","","-"
"OC1=CC=C2OC=C(C2=C1)[N+]([O-])=O","-","-","-","3-Nitrobenzo[b]furan-5-ol","164.0 - 165.0","?C","437.5","K","","","","","","-","","-","","-","","-"
"CSC1=CC=C(S1)C(O)=O","-","-","-","5-(Methylthio)thiophene-2-carboxylic acid","103.0 - 105.0","?C","377.0","K","","","","","","-","","-","","-","","-"
"ClC(=O)C1=C(Br)C=CS1","-","-","-","3-Bromothiophene-2-carbonyl chloride","65.0 - 67.0","?C","339.0","K","","","","","","-","","-","","-","","-"
"FC(F)(F)C1=CC(=CC(=C1)C1=CC=C(O1)C=O)C(F)(F)F","-","-","-","5-[3,5-Di(trifluoromethyl)phenyl]-2-furaldehyde","109.0 - 110.0","?C","382.5","K","","","","","","-","","-","","-","","-"
"FC(F)(F)C1=CC=C(C=C1)C1=NC(CCl)=NO1","-","-","-","3-(Chloromethyl)-5-[4-(trifluoromethyl)phenyl]-1,2,4-oxadiazole","48.0 - 50.0","?C","322.0","K","","","","","","-","","-","","-","","-"
"ClC1=CC=C(C=C1)N1C=CC=C1C=O","-","-","-","1-(4-Chlorophenyl)-1H-pyrrole-2-carbaldehyde","92.0 - 96.0","?C","367.0","K","","","","","","-","","-","","-","","-"
"FC(F)(F)C1=CN=C(N2CCNCC2)C(Cl)=C1","-","-","-","1-[3-Chloro-5-(trifluoromethyl)-2-pyridyl]piperazine","65.0 - 67.0","?C","339.0","K","","","","","","-","","-","","-","","-"
"BrC1=CC(=CC(Br)=C1)C#N","-","-","-","3,5-Dibromobenzonitrile","98.0 - 99.0","?C","371.5","K","","","","","","-","","-","","-","","-"
"FC(F)(F)C1=CC(Cl)=C(C(=O)CBr)C(Cl)=C1","-","-","-","2-Bromo-1-[2,6-dichloro-4-(trifluoromethyl)phenyl]ethan-1-one","46.0 - 48.0","?C","320.0","K","","","","","","-","","-","","-","","-"
"ClCC(=O)C1=CC(Br)=C(Cl)S1","-","-","-","1-(4-Bromo-5-chloro-2-thienyl)-2-chloroethan-1-one","77.0 - 78.0","?C","350.5","K","","","","","","-","","-","","-","","-"
"FC1=CC2=C(SCCC2=O)C=C1","-","-","-","6-Fluoro-2,3-dihydro-4H-thiochromen-4-one","94.0 - 95.0","?C","367.5","K","","","","","","-","","-","","-","","-"
"FC(F)(F)OC1=C(C=CC=C1)C1=CC=C(O1)C=O","-","-","-","5-[2-(Trifluoromethoxy)phenyl]-2-furaldehyde","72.0 - 74.0","?C","346.0","K","","","","","","-","","-","","-","","-"
"OC(=O)C1=CC=C(C=C1)C1=CC=CC=C1F","-","-","-","2'-Fluoro[1,1'-biphenyl]-4-carboxylic acid","234.0 - 236.0","?C","508.0","K","","","","","","-","","-","","-","","-"
"CCC(O)C1=CC=C(C=C1)C1=CC=CC=C1F","-","-","-","1-(2'-Fluoro[1,1'-biphenyl]-4-yl)propan-1-ol","55.0 - 56.0","?C","328.5","K","","","","","","-","","-","","-","","-"
"O=CC1=CC=CC=C1N1CCN(CC2=CC=CC=C2)CC1","-","-","-","2-(4-Benzylpiperazino)benzaldehyde","58.0 - 60.0","?C","332.0","K","","","","","","-","","-","","-","","-"
"FC(F)(F)C1=CC=C(N=C1)N1CCN(CC1)C1=CC=CC=C1C=O","-","-","-","2-{4-[5-(Trifluoromethyl)-2-pyridyl]piperazino}benzaldehyde","106.0 - 107.0","?C","379.5","K","","","","","","-","","-","","-","","-"
"O=CC1=CC=CC=C1N1CCOCC1","-","-","-","2-Morpholinobenzaldehyde","45.0 - 46.0","?C","318.5","K","","","","","","-","","-","","-","","-"
"[O-][N+](=O)C1=CC=C(Cl)C(Cl)=C1C#N","-","-","-","2,3-Dichloro-6-nitrobenzonitrile","90.0 - 93.0","?C","364.5","K","","","","","","-","","-","","-","","-"
"OC(=O)C1=C2CCCCCC2=NC2=CC=C(F)C=C12","-","-","-","2-Fluoro-7,8,9,10-tetrahydro-6H-cyclohepta[b]quinoline-11-carboxylic acid","289.0 - 291.0","?C","563.0","K","","","","","","-","","-","","-","","-"
"CN(C)C1=CC(Cl)=C(C=O)C=C1","-","-","-","2-Chloro-4-(dimethylamino)benzaldehyde","83.0 - 84.0","?C","356.5","K","","","","","","-","","-","","-","","-"
"CN1CCN(CC1)C1=C(C=O)C=CC=C1","-","-","-","2-(4-Methylpiperazin-1-yl)benzaldehyde","44.0 - 48.0","?C","319.0","K","","","","","","-","","-","","-","","-"
"COC1=CC=C(C=C1)C1=NNC=C1C=O","-","-","-","3-(4-Methoxyphenyl)-1H-pyrazole-4-carbaldehyde","160.0 - 161.0","?C","433.5","K","","","","","","-","","-","","-","","-"
"CCOC(=O)C1=C(C)N(N=C1)C1=CC=C(N)C=C1","-","-","-","Ethyl 1-(4-aminophenyl)-5-methyl-1H-pyrazole-4-carboxylate","91.0 - 92.0","?C","364.5","K","","","","","","-","","-","","-","","-"
"FC(F)(F)C1=CC=C(C=C1)N1C=CC=C1C=O","-","-","-","1-[4-(Trifluoromethyl)phenyl]-1H-pyrrole-2-carbaldehyde","97.0 - 98.0","?C","370.5","K","","","","","","-","","-","","-","","-"
"FC(F)(F)C1=CC=C(C2=CC=C(O2)C=O)C(Cl)=C1","-","-","-","5-[2-Chloro-4-(trifluoromethyl)phenyl]-2-furaldehyde","86.0 - 87.0","?C","359.5","K","","","","","","-","","-","","-","","-"
"FC1=C(C=C(C=C1)C1=CC=C(O1)C=O)C(F)(F)F","-","-","-","5-[4-Fluoro-3-(trifluoromethyl)phenyl]-2-furaldehyde","89.0 - 91.0","?C","363.0","K","","","","","","-","","-","","-","","-"
"ClCC1=NOC(=N1)C1=CC=CS1","-","-","-","3-(Chloromethyl)-5-(2-thienyl)-1,2,4-oxadiazole","67.0 - 68.0","?C","340.5","K","","","","","","-","","-","","-","","-"
"COC(=O)C1=CC(C=O)=CN1C","-","-","-","Methyl 4-formyl-1-methyl-1H-pyrrole-2-carboxylate","100.0 - 101.0","?C","373.5","K","","","","","","-","","-","","-","","-"
"CC(=O)C1=C(C)C=C(C)N1","-","-","-","1-(3,5-Dimethyl-1H-pyrrol-2-yl)ethan-1-one","118.0 - 121.0","?C","392.5","K","","","","","","-","","-","","-","","-"
"CC(C)CC1=CC=C(C=C1)C(C)C(=O)NN","-","-","-","2-(4-Isobutylphenyl)propanohydrazide","76.0 - 78.0","?C","350.0","K","","","","","","-","","-","","-","","-"
"COC1=C(C=CC=C1)N1CCN(CC(N)=S)CC1","-","-","-","2-[4-(2-Methoxyphenyl)piperazino]ethanethioamide","130.0 - 132.0","?C","404.0","K","","","","","","-","","-","","-","","-"
"IC1=CC=C(C=C1)N1C=CC=C1C=O","-","-","-","1-(4-Iodophenyl)-1H-pyrrole-2-carbaldehyde","98.0 - 100.0","?C","372.0","K","","","","","","-","","-","","-","","-"
"NC(=NO)C1=C(Cl)C=CC=C1Cl","-","-","-","2,6-Dichloro-N'-hydroxybenzenecarboximidamide","163.0 - 166.0","?C","437.5","K","","","","","","-","","-","","-","","-"
"ClC1=CC=C(OCC#N)C(Cl)=C1","-","-","-","2-(2,4-Dichlorophenoxy)acetonitrile","46.0 - 48.0","?C","320.0","K","","","","","","-","","-","","-","","-"
"CC(C)(C)C1=CC=C(C=C1)C1=NN=C(S)N1C1=CC=CC(=C1)C(F)(F)F","-","-","-","5-[4-(tert-Butyl)phenyl]-4-[3-(trifluoromethyl)phenyl]-4H-1,2,4-triazole-3-thiol","256.0 - 260.0","?C","531.0","K","","","","","","-","","-","","-","","-"
"CC(C)N1C(O)=NN=C1S","-","-","-","4-Isopropyl-5-mercapto-4H-1,2,4-triazol-3-ol","167.0 - 170.0","?C","441.5","K","","","","","","-","","-","","-","","-"
"CNC(C)=C(C(=O)OC)C(=O)C1=CC(Cl)=NC(Cl)=C1","-","-","-","Methyl 2-[(2,6-dichloro-4-pyridyl)carbonyl]-3-(methylamino)but-2-enoate","112.0 - 115.0","?C","386.5","K","","","","","","-","","-","","-","","-"
"OC=C(C#N)C1=CC=CC=C1","-","-","-","3-hydroxy-2-phenylacrylonitrile","155.0 - 157.0","?C","429.0","K","","","","","","-","","-","","-","","-"
"ClC1=CC=C(C=C1)C(C=O)C#N","-","-","-","2-(4-chlorophenyl)-3-oxopropanenitrile","157.0","?C","430.0","K","","","","","","-","","-","","-","","-"
"NC(=S)C1=CC(=CC=C1)N1C=CC=C1","-","-","-","3-(1H-Pyrrol-1-yl)benzene-1-carbothioamide","110.0 - 112.0","?C","384.0","K","","","","","","-","","-","","-","","-"
"NC(=NO)C1=C(Cl)C(Cl)=CC=C1","-","-","-","2,3-Dichloro-N'-hydroxybenzenecarboximidamide","139.0 - 140.0","?C","412.5","K","","","","","","-","","-","","-","","-"
"CC(C)(C)C1=CC=C(C=C1)C1=NNN=N1","-","-","-","5-[4-(tert-Butyl)phenyl]-2H-1,2,3,4-tetraazole","193.0 - 195.0","?C","467.0","K","","","","","","-","","-","","-","","-"
"CC1=NNC(=C1)C(=O)NN","-","-","-","3-methyl-1H-pyrazole-5-carbohydrazide","157.0 - 158.0","?C","430.5","K","","","","","","-","","-","","-","","-"
"CC(C)(C)C1=NNC(=C1)C(=O)NN","-","-","-","3-(tert-Butyl)-1H-pyrazole-5-carbohydrazide","177.0 - 181.0","?C","452.0","K","","","","","","-","","-","","-","","-"
"NC(=S)COC1=CC=CC=C1Cl","-","-","-","2-(2-Chlorophenoxy)ethanethioamide","116.0 - 117.0","?C","389.5","K","","","","","","-","","-","","-","","-"
"NC(=S)COC1=CC(Cl)=CC=C1","-","-","-","2-(3-Chlorophenoxy)ethanethioamide","122.0 - 124.0","?C","396.0","K","","","","","","-","","-","","-","","-"
"COC1=CC=C(OCC(N)=S)C=C1","-","-","-","2-(4-Methoxyphenoxy)ethanethioamide","113.0 - 114.0","?C","386.5","K","","","","","","-","","-","","-","","-"
"NC(=S)CS(=O)(=O)C1=CC=C(Cl)C=C1","-","-","-","2-[(4-Chlorophenyl)sulfonyl]ethanethioamide","188.0 - 192.0","?C","463.0","K","","","","","","-","","-","","-","","-"
"NC(COC1=CC=C(C=C1)C1SCCS1)=NO","-","-","-","2-[4-(1,3-Dithiolan-2-yl)phenoxy]-N'-hydroxyethanimidamide","113.0 - 115.0","?C","387.0","K","","","","","","-","","-","","-","","-"
"CCOC(=O)C1=CSC(=N1)C1=C(Cl)C(Cl)=CC=C1","-","-","-","Ethyl 2-(2,3-dichlorophenyl)-1,3-thiazole-4-carboxylate","108.0 - 110.0","?C","382.0","K","","","","","","-","","-","","-","","-"
"NNC(=O)C1=CSC(=N1)C1=C(Cl)C(Cl)=CC=C1","-","-","-","2-(2,3-Dichlorophenyl)-1,3-thiazole-4-carbohydrazide","230.0 - 233.0","?C","504.5","K","","","","","","-","","-","","-","","-"
"ClC(=O)C1=CSC(CC2=C(Cl)C=CC=C2Cl)=N1","-","-","-","2-(2,6-Dichlorobenzyl)-1,3-thiazole-4-carbonyl chloride","104.0","?C","377.0","K","","","","","","-","","-","","-","","-"
"NC(=S)NN=CC1=CC=C(C=C1)C#N","-","-","-","2-(4-Cyanobenzylidene)hydrazine-1-carbothioamide","243.0 - 247.0","?C","518.0","K","","","","","","-","","-","","-","","-"
"N#CCOC1=CC=C(C=C1)C1=NCCS1","-","-","-","2-[4-(4,5-Dihydro-1,3-thiazol-2-yl)phenoxy]acetonitrile","83.0 - 85.0","?C","357.0","K","","","","","","-","","-","","-","","-"
"CCOC(=O)C1=C(O)N=C(S1)C1=CC=C(C)C=C1","-","-","-","Ethyl 4-hydroxy-2-(4-methylphenyl)-1,3-thiazole-5-carboxylate","128.0 - 130.0","?C","402.0","K","","","","","","-","","-","","-","","-"
"CC1=NC(=CS1)C#N","-","-","-","2-Methyl-1,3-thiazole-4-carbonitrile","58.0","?C","331.0","K","","","","","","-","","-","","-","","-"
"O=C1OC2=CC=CC=C2N1CCC#N","-","-","-","3-(2-Oxo-2,3-dihydro-1,3-benzoxazol-3-yl)propanenitrile","118.0 - 120.0","?C","392.0","K","","","","","","-","","-","","-","","-"
"OC(=O)CCN1C(=O)OC2=CC=CC=C12","-","-","-","3-(2-Oxo-2,3-dihydro-1,3-benzoxazol-3-yl)propanoic acid","126.0 - 128.0","?C","400.0","K","","","","","","-","","-","","-","","-"
"CCN1N=C(C)C(Br)=C1C(O)=O","-","-","-","4-Bromo-1-ethyl-3-methyl-1H-pyrazole-5-carboxylic acid","158.0 - 162.0","?C","433.0","K","","","","","","-","","-","","-","","-"
"CC1=NC(=CS1)C(N)=S","-","-","-","2-Methyl-1,3-thiazole-4-carbothioamide","201.0 - 203.0","?C","475.0","K","","","","","","-","","-","","-","","-"
"CCOC(=O)C1=C(C)N=C(S1)C1=CC=C(C=C1)C(F)(F)F","-","-","-","Ethyl 4-methyl-2-[4-(trifluoromethyl)phenyl]-1,3-thiazole-5-carboxylate","87.0 - 89.0","?C","361.0","K","","","","","","-","","-","","-","","-"
"CC1=C(SC(=N1)C1=CC=C(C=C1)C(F)(F)F)C(O)=O","-","-","-","4-Methyl-2-[4-(trifluoromethyl)phenyl]-1,3-thiazole-5-carboxylic acid","237.0 - 238.0","?C","510.5","K","","","","","","-","","-","","-","","-"
"CC(C)(C)C1=NN(CC2=CC=CC=C2)C(=C1)C(O)=O","-","-","-","1-Benzyl-3-(tert-butyl)-1H-pyrazole-5-carboxylic acid","126.0","?C","399.0","K","","","","","","-","","-","","-","","-"
"ClC(=O)C1=CC=C(OC2=CC(Cl)=CC(Cl)=C2)O1","-","-","-","5-(3,5-Dichlorophenoxy)furan-2-carbonyl chloride","60.0 - 62.0","?C","334.0","K","","","","","","-","","-","","-","","-"
"CC1=NN(C(=C1)C(O)=O)C(C)(C)C","-","-","-","1-(tert-Butyl)-3-methyl-1H-pyrazole-5-carboxylic acid","149.0 - 153.0","?C","424.0","K","","","","","","-","","-","","-","","-"
"CN1N=C(C=C1C(O)=O)C(C)(C)C","-","-","-","3-(tert-Butyl)-1-methyl-1H-pyrazole-5-carboxylic acid","151.0 - 154.0","?C","425.5","K","","","","","","-","","-","","-","","-"
"COC(=O)C1=C(ON=C1C)C1=NOC(C)=C1","-","-","-","Methyl 3-methyl-5-(5-methylisoxazol-3-yl)isoxazole-4-carboxylate","84.0 - 86.0","?C","358.0","K","","","","","","-","","-","","-","","-"
"CSC1=NN(CO)C(=S)S1","-","-","-","3-(Hydroxymethyl)-5-(methylthio)-1,3,4-thiadiazole-2(3H)-thione","72.0 - 74.0","?C","346.0","K","","","","","","-","","-","","-","","-"
"CC1=CC(=NO1)C1=C(C(Cl)=O)C(C)=NO1","-","-","-","3',5-Dimethyl-3,5'-biisoxazole-4'-carbonyl chloride","57.0","?C","330.0","K","","","","","","-","","-","","-","","-"
"COC(=O)C1=C(NN=C1C)C1=NOC(C)=C1","-","-","-","Methyl 3-methyl-5-(5-methylisoxazol-3-yl)-1H-pyrazole-4-carboxylate","168.0 - 170.0","?C","442.0","K","","","","","","-","","-","","-","","-"
"NNC(=O)C1=CC(OCC(F)(F)F)=CC=C1OCC(F)(F)F","-","-","-","2,5-Di(2,2,2-trifluoroethoxy)benzene-1-carbohydrazide","86.0 - 88.0","?C","360.0","K","","","","","","-","","-","","-","","-"
"CC(=O)C1=CSC(=N1)C1=CC=CC=C1","-","-","-","1-(2-Phenyl-1,3-thiazol-4-yl)ethan-1-one","84.0","?C","357.0","K","","","","","","-","","-","","-","","-"
"COC(=O)C1=NOC(C)=C1C(C)=NO","-","-","-","Methyl 4-(1-hydroxyiminoethyl)-5-methylisoxazole-3-carboxylate","121.0 - 124.0","?C","395.5","K","","","","","","-","","-","","-","","-"
"COC1=CC=C(C=C1)N1C(S)=NN=C1C1=CC=C(OC(F)(F)F)C=C1","-","-","-","4-(4-Methoxyphenyl)-5-[4-(trifluoromethoxy)phenyl]-4H-1,2,4-triazole-3-thiol","178.0 - 180.0","?C","452.0","K","","","","","","-","","-","","-","","-"
"NC(CSC1=NC=CC=C1C(F)(F)F)=NO","-","-","-","N'-Hydroxy-2-{[3-(trifluoromethyl)pyridin-2-yl]thio}ethanimidamide","161.0 - 164.0","?C","435.5","K","","","","","","-","","-","","-","","-"
"CCOC(=O)C(=O)CC(=O)C1=CC=CS1","-","-","-","Ethyl 2,4-dioxo-4-(2-thienyl)butanoate","38.0 - 40.0","?C","312.0","K","","","","","","-","","-","","-","","-"
"CCOC(=O)C1=CC(=NN1)C1=CC=CS1","-","-","-","Ethyl 5-thien-2-yl-1H-pyrazole-3-carboxylate","137.0 - 139.0","?C","411.0","K","","","","","","-","","-","","-","","-"
"COC(OC)C1=NC(S)=C(C=C1)C#N","-","-","-","6-(Dimethoxymethyl)-2-mercaptonicotinonitrile","137.0 - 139.0","?C","411.0","K","","","","","","-","","-","","-","","-"
"CSC1=NC(C=O)=CC=C1C#N","-","-","-","6-Formyl-2-(methylsulfanyl)nicotinonitrile","140.0","?C","413.0","K","","","","","","-","","-","","-","","-"
"NC(=S)C1=CC=NO1","-","-","-","Isoxazole-5-carbothioamide","163.0","?C","436.0","K","","","","","","-","","-","","-","","-"
"CCOC(=O)C1=NOC(=C1)C(=O)CBr","-","-","-","Ethyl 5-(2-bromoacetyl)isoxazole-3-carboxylate","71.0 - 73.0","?C","345.0","K","","","","","","-","","-","","-","","-"
"CCOC(=O)C1=C(Cl)C=C(C)N=C1Cl","-","-","-","Ethyl 2,4-dichloro-6-methylnicotinate","53.0 - 57.0","?C","328.0","K","","","","","","-","","-","","-","","-"
"CC1=CC(=NO1)C(N)=S","-","-","-","5-Methylisoxazole-3-carbothioamide","169.0 - 172.0","?C","443.5","K","","","","","","-","","-","","-","","-"
"CC(C)(C)S(=O)(=O)CC(N)=S","-","-","-","2-(tert-Butylsulfonyl)ethanethioamide","184.0 - 186.0","?C","458.0","K","","","","","","-","","-","","-","","-"
"COC1=CC=C(C=N1)C#N","-","-","-","6-Methoxynicotinonitrile","94.0 - 95.0","?C","367.5","K","","","","","","-","","-","","-","","-"
"BrCC(=O)C1=CC(=NO1)C1=CC=CC=C1","-","-","-","2-Bromo-1-(3-phenylisoxazol-5-yl)ethan-1-one","109.0 - 112.0","?C","383.5","K","","","","","","-","","-","","-","","-"
"ON=CC1=C(Cl)C=C(Cl)C=C1","-","-","-","2,4-Dichlorobenzaldehyde oxime","134.0 - 136.0","?C","408.0","K","","","","","","-","","-","","-","","-"
"ClC1=CC=C(C2=NOC(=C2)C(=O)CBr)C(Cl)=C1","-","-","-","2-Bromo-1-[3-(2,4-dichlorophenyl)isoxazol-5-yl]ethan-1-one","85.0 - 87.0","?C","359.0","K","","","","","","-","","-","","-","","-"
"CC(=O)C1=CC(=NO1)C1=CC=C(Cl)C(Cl)=C1","-","-","-","1-[3-(3,4-Dichlorophenyl)isoxazol-5-yl]ethan-1-one","130.0 - 132.0","?C","404.0","K","","","","","","-","","-","","-","","-"
"ClC1=CC=C(C=C1Cl)C1=NOC(=C1)C(=O)CBr","-","-","-","2-Bromo-1-[3-(3,4-dichlorophenyl)isoxazol-5-yl]ethan-1-one","114.0 - 118.0","?C","389.0","K","","","","","","-","","-","","-","","-"
"CC(=O)C1=C(C)ON=C1C1=CC=C(Cl)C=C1","-","-","-","1-[3-(4-Chlorophenyl)-5-methylisoxazol-4-yl]ethan-1-one","56.0 - 59.0","?C","330.5","K","","","","","","-","","-","","-","","-"
"CC(=O)C1=C(C)ON=C1C1=CC=CC=C1","-","-","-","1-(5-Methyl-3-phenylisoxazol-4-yl)ethan-1-one","55.0 - 58.0","?C","329.5","K","","","","","","-","","-","","-","","-"
"ClC1=CC=CC=C1NC(=O)CBr","-","-","-","N1-(2-Chlorophenyl)-2-bromoacetamide","89.0 - 91.0","?C","363.0","K","","","","","","-","","-","","-","","-"
"ON=CC1=CC=C(OC(F)(F)F)C=C1","-","-","-","4-(Trifluoromethoxy)benzaldehyde oxime","41.0","?C","314.0","K","","","","","","-","","-","","-","","-"
"NC(=S)C1=NC=C(C=C1Cl)C(F)(F)F","-","-","-","3-Chloro-5-(trifluoromethyl)pyridine-2-carbothioamide","135.0 - 136.0","?C","408.5","K","","","","","","-","","-","","-","","-"
"ClC1=CC=C(C=C1)C1=NOC(=C1)C(=O)CBr","-","-","-","2-Bromo-1-[3-(4-chlorophenyl)-5-isoxazolyl]-1-ethanone","157.0 - 158.0","?C","430.5","K","","","","","","-","","-","","-","","-"
"NC(=O)COC1=CC=CC(Cl)=C1","-","-","-","2-(3-Chlorophenoxy)acetamide","123.0 - 126.0","?C","397.5","K","","","","","","-","","-","","-","","-"
"ClC1=CN2C=CSC2=N1","-","-","-","6-Chloroimidazo[2,1-b][1,3]thiazole","85.0","?C","358.0","K","","","","","","-","","-","","-","","-"
"COC1=NC=C(C=C1)C(N)=S","-","-","-","6-Methoxypyridine-3-carbothioamide","150.0 - 152.0","?C","424.0","K","","","","","","-","","-","","-","","-"
"NC(=S)C1=C(C=CN=C1)C(F)(F)F","-","-","-","4-(Trifluoromethyl)pyridine-3-carbothioamide","153.0 - 156.0","?C","427.5","K","","","","","","-","","-","","-","","-"
"ClC1=C(N2C=CSC2=N1)S(Cl)(=O)=O","-","-","-","6-Chloroimidazo[2,1-b][1,3]thiazole-5-sulfonyl chloride","137.0 - 139.0","?C","411.0","K","","","","","","-","","-","","-","","-"