"SMILES","CASRN","EXTERNALID","N","NAME","Melting Point","UNIT {Melting Point}","Melting Point {measured, converted}","UNIT {Melting Point}","Dataset","comment (property)","comment (chemical)","measurement method","Pressure","UNIT {Pressure}","Som set numeric condition","UNIT {Som set numeric condition}","Resp set numeric condition","UNIT {Resp set numeric condition}","Quality code","UNIT {Quality code}"
"O=CC1=C(CN2C=NC=N2)C=CC=C1","-","-","-","2-(1H-1,2,4-Triazol-1-ylmethyl)benzaldehyde","59.0","?C","332.0","K","","","","","","-","","-","","-","","-"
"CC1=NOC(=N1)C1=CC=CC=C1CO","-","-","-","[2-(3-Methyl-1,2,4-oxadiazol-5-yl)phenyl]methanol","91.0 - 92.0","?C","364.5","K","","","","","","-","","-","","-","","-"
"C1COC2=C(N1)N=CC=C2","-","-","-","3,4-Dihydro-2H-pyrido[3,2-b][1,4]oxazine","85.0 - 86.0","?C","358.5","K","","","","","","-","","-","","-","","-"
"NN1C(CC2=CC=CC=C2)=NC2=C(C=CC=C2)C1=O","-","-","-","3-Amino-2-benzyl-3,4-dihydroquinazolin-4-one","111.0","?C","384.0","K","","","","","","-","","-","","-","","-"
"NCC1=C(C=CC(=C1)C(F)(F)F)N1CCOCC1","-","-","-","2-Morpholino-5-(trifluoromethyl)benzylamine","31.0 - 34.0","?C","305.5","K","","","","","","-","","-","","-","","-"
"ClC(=O)C1=CC=C(C=C1)C1=NC=CS1","-","-","-","4-(1,3-Thiazol-2-yl)benzoyl chloride","122.0 - 123.0","?C","395.5","K","","","","","","-","","-","","-","","-"
"N#CC1=CC=C(C=C1)C1=NC=CS1","-","-","-","4-(1,3-Thiazol-2-yl)benzonitrile","102.0 - 103.0","?C","375.5","K","","","","","","-","","-","","-","","-"
"OC(=O)C1=CC=CC=C1OC1CCOCC1","-","-","-","2-(Tetrahydropyran-4-yloxy)benzoic acid","53.0 - 54.0","?C","326.5","K","","","","","","-","","-","","-","","-"
"FC(F)(F)C1=CC(CCl)=C(C=C1)N1CCOCC1","-","-","-","4-[2-(Chloromethyl)-4-(trifluoromethyl)phenyl]morpholine","52.0 - 54.0","?C","326.0","K","","","","","","-","","-","","-","","-"
"BrN1C(=O)C2=C(C=CC=C2)S1(=O)=O","-","-","-","N-Bromosaccharin","160.0 - 170.0","?C","438.0","K","","","","","","-","","-","","-","","-"
"ClN1C(=O)C2=C(C=CC=C2)S1(=O)=O","-","-","-","N-Chlorosaccharin","148.0 - 151.0","?C","422.5","K","","","","","","-","","-","","-","","-"
"CC1=NC(CO)=CS1","-","-","-","(2-Methyl-1,3-thiazol-4-yl)methanol","50.0","?C","323.0","K","","","","","","-","","-","","-","","-"
"OC(=O)C1=CC=C(OC2CCOCC2)C=C1","-","-","-","4-(Tetrahydropyran-4-yloxy)benzoic acid","185.0 - 186.0","?C","458.5","K","","","","","","-","","-","","-","","-"
"BrC1=CC=CC2=C1NC=C2","-","-","-","7-Bromo-1H-indole","46.0 - 47.0","?C","319.5","K","","","","","","-","","-","","-","","-"
"COC1=CC(O)=C(C(C)=O)C(O)=C1","-","-","-","1-(2,6-DIHYDROXY-4-METHOXYPHENYL)ETHANONE","144.0 - 149.0","?C","419.5","K","","","","","","-","","-","","-","","-"
"CC1=C(C=O)C(=NO1)C1=C(Cl)C=CC=C1Cl","-","-","-","3-(2,6-Dichlorophenyl)-5-methylisoxazole-4-carbaldehyde","100.0 - 103.0","?C","374.5","K","","","","","","-","","-","","-","","-"
"OC(=O)C1=C(Br)SC=C1","-","-","-","2-Bromothiophene-3-carboxylic acid","174.0 - 175.0","?C","447.5","K","","","","","","-","","-","","-","","-"
"BrC1=CC2=C(NCCO2)N=C1","-","-","-","7-Bromo-3,4-dihydro-2H-pyrido[3,2-b][1,4]oxazine","116.0 - 119.0","?C","390.5","K","","","","","","-","","-","","-","","-"
"FC1=NC=CC=C1I","-","-","-","2-Fluoro-3-iodopyridine","45.0 - 46.0","?C","318.5","K","","","","","","-","","-","","-","","-"
"NCC1=CC=C(C=C1)C1=NC=CS1","-","-","-","[4-(1,3-Thiazol-2-yl)phenyl]methylamine","39.0 - 42.0","?C","313.5","K","","","","","","-","","-","","-","","-"
"CC1=NOC(=N1)C1=CC=C(CBr)C=C1","-","-","-","5-[4-(Bromomethyl)phenyl]-3-methyl-1,2,4-oxadiazole","114.0 - 116.0","?C","388.0","K","","","","","","-","","-","","-","","-"
"N#CC1=CC=C(OC2CCOCC2)C=C1","-","-","-","4-(Tetrahydropyran-4-yloxy)benzonitrile","109.0 - 112.0","?C","383.5","K","","","","","","-","","-","","-","","-"
"CC(C)(C)OC(=O)NCC1=C(Br)SC=C1","-","-","-","tert-Butyl (2-bromothien-3-yl)methylcarbamate","71.0 - 72.0","?C","344.5","K","","","","","","-","","-","","-","","-"
"OC(=O)C1=C(C=CC(=C1)C(F)(F)F)N1CCOCC1","-","-","-","2-Morpholino-5-(trifluoromethyl)benzoic acid","175.0 - 177.0","?C","449.0","K","","","","","","-","","-","","-","","-"
"FC1=C(F)C(F)=C(OC(=O)C2=C(C=CC(=C2)C(F)(F)F)N2CCOCC2)C(F)=C1F","-","-","-","Pentafluorophenyl 2-morpholino-5-(trifluoromethyl)benzoate","91.0 - 93.0","?C","365.0","K","","","","","","-","","-","","-","","-"
"CN1CCOC2=C1N=CC(=C2)S(Cl)(=O)=O","-","-","-","4-Methyl-3,4-dihydro-2H-pyrido[3,2-b][1,4]oxazine-7-sulfonyl chloride","130.0 - 132.0","?C","404.0","K","","","","","","-","","-","","-","","-"
"CN1CCOC2=C1N=CC(Br)=C2","-","-","-","7-Bromo-4-methyl-3,4-dihydro-2H-pyrido[3,2-b][1,4]oxazine","77.0 - 79.0","?C","351.0","K","","","","","","-","","-","","-","","-"
"CC1=CC(CS(Cl)(=O)=O)=CC=C1","-","-","-","(3-Methylphenyl)methanesulfonyl chloride","48.0 - 49.0","?C","321.5","K","","","","","","-","","-","","-","","-"
"[O-][N+](=O)C1=CC(C=O)=CC=C1SC1=CC=C(Cl)C=C1","-","-","-","4-[(4-Chlorophenyl)thio]-3-nitrobenzaldehyde","120.0","?C","393.0","K","","","","","","-","","-","","-","","-"
"ClC1=CC(Cl)=C(I)C(Cl)=C1","-","-","-","1,3,5-trichloro-2-iodobenzene","56.0 - 58.0","?C","330.0","K","","","","","","-","","-","","-","","-"
"NCC1=CN=C(C=C1)C1=CC=CC=C1","-","-","-","(6-Phenyl-3-pyridinyl)methylamine","38.0 - 40.0","?C","312.0","K","","","","","","-","","-","","-","","-"
"FC1=C(F)C(F)=C(OC(=O)C2=CC=CC=C2N2CCOCC2)C(F)=C1F","-","-","-","Pentafluorophenyl 2-morpholinobenzoate","87.0 - 90.0","?C","361.5","K","","","","","","-","","-","","-","","-"
"NC1=CC=CC=C1OC1CCOCC1","-","-","-","2-(Tetrahydropyran-4-yloxy)aniline","58.0 - 61.0","?C","332.5","K","","","","","","-","","-","","-","","-"
"FC(F)(F)C1=CN=C(C=C1)C1=CC=C(C=O)C=C1","-","-","-","4-[5-(Trifluoromethyl)pyridin-2-yl]benzaldehyde","91.0 - 93.0","?C","365.0","K","","","","","","-","","-","","-","","-"
"CN1N=CC2=C1N=CN=C2Cl","-","-","-","4-Chloro-1-methyl-1H-pyrazolo[3,4-d]pyrimidine","97.0 - 100.0","?C","371.5","K","","","","","","-","","-","","-","","-"
"FC(F)(F)C1N(CCC2=C1NC1=CC=CC=C21)C(=O)CCl","-","-","-","2-Chloro-1-[1-(trifluoromethyl)-1,3,4,9-tetrahydro-2H-beta-carbolin-2-yl]ethan-1-one","232.5 - 235.0","?C","506.8","K","","","","","","-","","-","","-","","-"
"CC1=NC(C=O)=CS1","-","-","-","2-Methyl-1,3-thiazole-4-carbaldehyde","56.0 - 58.0","?C","330.0","K","","","","","","-","","-","","-","","-"
"OC(=O)C1CCC(CC1)C(F)(F)F","-","-","-","4-(Trifluoromethyl)cyclohexane-1-carboxylic acid","63.0 - 65.0","?C","337.0","K","","","","","","-","","-","","-","","-"
"FC(F)(F)C1=CN=C(S)C(Cl)=C1","-","-","-","3-Chloro-5-(trifluoromethyl)pyridine-2-thiol","145.0 - 149.0","?C","420.0","K","","","","","","-","","-","","-","","-"
"O=CC1=CN=C(C=C1)C1=CC=CC=C1","-","-","-","6-Phenylnicotinaldehyde","57.0 - 59.0","?C","331.0","K","","","","","","-","","-","","-","","-"
"OCC1=CC=C(C=C1)C1=NC=CS1","-","-","-","[4-(1,3-Thiazol-2-yl)phenyl]methanol","94.0 - 97.0","?C","368.5","K","","","","","","-","","-","","-","","-"
"FC(F)(F)C1=CN=C(C=C1)C1=CC=C(C=C1)C#N","-","-","-","4-[5-(Trifluoromethyl)pyrid-2-yl]benzonitrile","123.0 - 124.0","?C","396.5","K","","","","","","-","","-","","-","","-"
"O=CC1=CC=CC(=C1)C1=NC=CC=N1","-","-","-","3-Pyrimidin-2-ylbenzaldehyde","98.0 - 100.0","?C","372.0","K","","","","","","-","","-","","-","","-"
"CN1N=CC=C1C(O)=O","-","-","-","1-methyl-1H-pyrazole-5-carboxylic acid","224.0 - 225.0","?C","497.5","K","","","","","","-","","-","","-","","-"
"ClS(=O)(=O)CC1=CC=C(Br)C=C1","-","-","-","(4-Bromophenyl)methanesulfonyl chloride","117.0 - 121.0","?C","392.0","K","","","","","","-","","-","","-","","-"
"FC1=CC(CS(Cl)(=O)=O)=CC=C1","-","-","-","(3-Fluorophenyl)methanesulfonyl chloride","39.0 - 41.0","?C","313.0","K","","","","","","-","","-","","-","","-"
"ClS(=O)(=O)CC1=CC=CC=C1Br","-","-","-","2-Bromobenzylsulfonyl chloride","78.0 - 80.0","?C","352.0","K","","","","","","-","","-","","-","","-"
"ClS(=O)(=O)CC1=CC(Br)=CC=C1","-","-","-","3-Bromobenzylsulfonyl chloride","88.0 - 89.0","?C","361.5","K","","","","","","-","","-","","-","","-"
"ClS(=O)(=O)CC1=CC(=CC=C1)C#N","-","-","-","3-Cyanobenzylsulfonyl chloride","100.0 - 102.0","?C","374.0","K","","","","","","-","","-","","-","","-"
"COC(=O)C1=CC=C(CS(Cl)(=O)=O)C=C1","-","-","-","Methyl 4-[(chlorosulfonyl)methyl]benzoate","116.0 - 117.0","?C","389.5","K","","","","","","-","","-","","-","","-"
"N#CC1=NC(=CC=C1)N1CCCC1","-","-","-","6-Pyrrolidin-1-ylpyridine-2-carbonitrile","73.0 - 74.0","?C","346.5","K","","","","","","-","","-","","-","","-"
"CC1=NOC(=N1)C1=C(CBr)C=CC=C1","-","-","-","5-[2-(Bromomethyl)phenyl]-3-methyl-1,2,4-oxadiazole","64.0 - 67.0","?C","338.5","K","","","","","","-","","-","","-","","-"
"O=CC1=CC=CC=C1OC1CCOCC1","-","-","-","2-(Tetrahydropyran-4-yloxy)benzaldehyde","67.0 - 70.0","?C","341.5","K","","","","","","-","","-","","-","","-"
"O=CC1=CC=C(OC2CCOCC2)C=C1","-","-","-","4-(Tetrahydropyran-4-yloxy)benzaldehyde","95.0 - 96.0","?C","368.5","K","","","","","","-","","-","","-","","-"
"O=CC1=CC=C(C=C1)C1=NC=CC=N1","-","-","-","4-Pyrimidin-2-ylbenzaldehyde","108.0 - 109.0","?C","381.5","K","","","","","","-","","-","","-","","-"
"OC(=O)C1=CC=CC(=C1)C1=NC=CC=N1","-","-","-","3-Pyrimidin-2-ylbenzoic acid","180.0 - 182.0","?C","454.0","K","","","","","","-","","-","","-","","-"
"CN1C=CC(=N1)C1=CC(=CC=C1)C(O)=O","-","-","-","3-(1-Methyl-1H-pyrazol-3-yl)benzoic acid","167.0 - 169.0","?C","441.0","K","","","","","","-","","-","","-","","-"
"NC1=NN=C(Br)S1","-","-","-","5-Bromo-1,3,4-thiadiazol-2-ylamine","168.0 - 169.0","?C","441.5","K","","","","","","-","","-","","-","","-"
"ClCC(=O)NC1=CC=C(Br)C=C1","-","-","-","N1-(4-Bromophenyl)-2-chloroacetamide","136.0 - 137.0","?C","409.5","K","","","","","","-","","-","","-","","-"
"NN1C(=O)C2=CC=CC3=CC=CC(C1=O)=C23","-","-","-","2-Amino-2,3-dihydro-1H-benzo[de]isoquinoline-1,3-dione","265.0 - 266.0","?C","538.5","K","","","","","","-","","-","","-","","-"
"N#CC1=CC=C(C=C1)N1CCCCC1","-","-","-","4-piperidin-1-ylbenzonitrile","51.0 - 53.0","?C","325.0","K","","","","","","-","","-","","-","","-"
"OC(=O)C1=CC(=CC=C1)C1=NC=CS1","-","-","-","3-(1,3-Thiazol-2-yl)benzoic acid","160.5 - 161.5","?C","434.0","K","","","","","","-","","-","","-","","-"
"CCOC(=O)C1=CC(=CC=C1)C1=NC=CS1","-","-","-","Ethyl 3-(1,3-thiazol-2-yl)benzoate","50.0 - 52.0","?C","324.0","K","","","","","","-","","-","","-","","-"
"ClC(=O)C1=C(Br)SC=C1","-","-","-","2-Bromothiophene-3-carbonyl chloride","61.0 - 62.0","?C","334.5","K","","","","","","-","","-","","-","","-"
"BrC1=CC=C(OC2CCOCC2)N=C1","-","-","-","5-Bromo-2-(tetrahydropyran-4-yloxy)pyridine","96.0 - 98.0","?C","370.0","K","","","","","","-","","-","","-","","-"
"CC1=NC=CN1C1=CC=C(C=C1)C#N","-","-","-","4-(2-Methyl-1H-imidazol-1-yl)benzonitrile","138.0 - 141.0","?C","412.5","K","","","","","","-","","-","","-","","-"
"CN1CCOC2=C1N=CC(=C2)C#N","-","-","-","4-Methyl-3,4-dihydro-2H-pyrido[3,2-b][1,4]oxazine-7-carbonitrile","107.0 - 109.0","?C","381.0","K","","","","","","-","","-","","-","","-"
"CN1C(=O)CC2=C1C=CC(Br)=C2","-","-","-","5-Bromo-1-methyl-2-oxoindoline","132.0 - 133.0","?C","405.5","K","","","","","","-","","-","","-","","-"
"OCC1=C(I)C=CC(O)=C1","-","-","-","3-(Hydroxymethyl)-4-iodophenol","146.0 - 148.0","?C","420.0","K","","","","","","-","","-","","-","","-"
"FC(F)(F)C1=CN=CC(Cl)=C1","-","-","-","3-Chloro-5-(trifluoromethyl)pyridine","131.5 - 133.0","?C","405.2","K","","","","","","-","","-","","-","","-"
"CCOC(=O)C1=C(N)SC=C1C1=CC=C(C=C1)C1=CC=CC=C1","-","-","-","Ethyl 2-amino-4-[1,1'-biphenyl]-4-yl-3-thiophenecarboxylate","155.0 - 157.0","?C","429.0","K","","","","","","-","","-","","-","","-"
"COC1=CC=CC=C1C1CCNCC1","-","-","-","4-(2-Methoxyphenyl)piperidine","54.0 - 55.0","?C","327.5","K","","","","","","-","","-","","-","","-"
"O=CC1=CC=CN1S(=O)(=O)C1=CC=CC=C1","-","-","-","1-(Phenylsulfonyl)-1H-pyrrole-2-carbaldehyde","76.0 - 77.0","?C","349.5","K","","","","","","-","","-","","-","","-"
"O=CC1=CC=C(C=C1)N1CCCCC1","-","-","-","4-Piperidinobenzaldehyde","62.0 - 63.0","?C","335.5","K","","","","","","-","","-","","-","","-"
"BrC1=CC=C(C=C1)N1CCCCC1","-","-","-","1-(4-Bromophenyl)piperidine","75.0 - 76.0","?C","348.5","K","","","","","","-","","-","","-","","-"
"ClCC1=CC=C(C=C1)C1=NC=CS1","-","-","-","2-[4-(Chloromethyl)phenyl]-1,3-thiazole","67.0 - 69.0","?C","341.0","K","","","","","","-","","-","","-","","-"
"N#CC1=CC=CC=C1N1C=CC=C1","-","-","-","2-(1H-Pyrrol-1-yl)benzonitrile","51.0","?C","324.0","K","","","","","","-","","-","","-","","-"
"COC1=CC=C(C=C1)C(=O)CC(=O)C(F)(F)F","-","-","-","4,4,4-Trifluoro-1-(4-methoxyphenyl)-1,3-butanedione","57.0 - 58.0","?C","330.5","K","","","","","","-","","-","","-","","-"
"BrCC1=CC=CC(C=O)=C1","-","-","-","3-(Bromomethyl)benzaldehyde","49.0 - 51.0","?C","323.0","K","","","","","","-","","-","","-","","-"
"CCOC(=O)C1=C(C)N=C(Cl)S1","-","-","-","Ethyl 2-chloro-4-methyl-1,3-thiazole-5-carboxylate","46.0 - 47.0","?C","319.5","K","","","","","","-","","-","","-","","-"
"OC(=O)C1=CC(=CC=C1N1CCOCC1)[N+]([O-])=O","-","-","-","2-Morpholino-5-nitrobenzoic acid","166.0 - 172.0","?C","442.0","K","","","","","","-","","-","","-","","-"
"FC(F)(F)C1=C(C=C(S1)C1=NC(=NO1)C1=CC=CC(=C1)C(F)(F)F)C1=CC=CC=C1","-","-","-","5-[4-Phenyl-5-(trifluoromethyl)-2-thienyl]-3-[3-(trifluoromethyl)phenyl]-1,2,4-oxadiazole","95.0 - 96.0","?C","368.5","K","","","","","","-","","-","","-","","-"
"CCOC(=O)C1=NC(Cl)=NC(C)=C1","-","-","-","Ethyl 2-chloro-6-methylpyrimidine-4-carboxylate","56.5 - 59.0","?C","330.8","K","","","","","","-","","-","","-","","-"
"NC1=CC=C(OC2CCOCC2)C=C1","-","-","-","4-(Tetrahydropyran-4-yloxy)aniline","71.0 - 73.0","?C","345.0","K","","","","","","-","","-","","-","","-"
"CN1C=CC(=N1)C1=CC=CC(=C1)C(=O)OC1=C(F)C(F)=C(F)C(F)=C1F","-","-","-","Pentafluorophenyl 3-(1-methyl-1H-pyrazol-3-yl)benzoate","126.0 - 127.0","?C","399.5","K","","","","","","-","","-","","-","","-"
"CNCC1=CN=C(C=C1)C1=CC=CC=C1","-","-","-","N-Methyl(6-phenylpyrid-3-yl)methylamine","39.0 - 41.5","?C","313.2","K","","","","","","-","","-","","-","","-"
"ClC(=O)C1=CC=C(OC2CCOCC2)C=C1","-","-","-","4-(Tetrahydropyran-4-yloxy)benzoyl chloride","37.5 - 39.0","?C","311.2","K","","","","","","-","","-","","-","","-"
"CC(C)(O)CCC1=CC=CC=C1O","-","-","-","2-(3-Hydroxy-3-methylbutyl)phenol","114.0 - 116.0","?C","388.0","K","","","","","","-","","-","","-","","-"
"BrC1=CC2=C(NC(=O)C2=O)C=C1","-","-","-","5-Bromoindoline-2,3-dione","251.0 - 253.0","?C","525.0","K","","","","","","-","","-","","-","","-"
"C1=CC2=CC=CC(P(C3=C4C=CC=CC4=CC=C3)C3=C4C=CC=CC4=CC=C3)=C2C=C1","-","-","-","Tri(1-naphthyl)phosphine","265.0 - 268.0","?C","539.5","K","","","","","","-","","-","","-","","-"
"COC(=O)C1=CC(=CC=C1SC)[N+]([O-])=O","-","-","-","methyl 2-(methylthio)-5-nitrobenzoate","130.0 - 132.0","?C","404.0","K","","","","","","-","","-","","-","","-"
"COC1=NC(OC)=NC(Cl)=C1","-","-","-","6-Chloro-2,4-dimethoxypyrimidine","74.0 - 76.0","?C","348.0","K","","","","","","-","","-","","-","","-"
"OCC1=CC=C(OC2CCOCC2)C=C1","-","-","-","[4-(Tetrahydropyran-4-yloxy)phenyl]methanol","81.5 - 82.5","?C","355.0","K","","","","","","-","","-","","-","","-"
"FC(F)(F)C1=CC(=C(C=C1)N1CCOCC1)S(Cl)(=O)=O","-","-","-","2-Morpholino-5-(trifluoromethyl)benzenesulfonyl chloride","81.5 - 84.0","?C","355.8","K","","","","","","-","","-","","-","","-"
"ClC1=C(Cl)C=C(COC2=CC=C(C=O)C=C2)C=C1","-","-","-","4-[(3,4-Dichlorobenzyl)oxy]benzaldehyde","92.0 - 93.0","?C","365.5","K","","","","","","-","","-","","-","","-"
"ClS(=O)(=O)C1=CN=C(C=C1)C1=CC=CC=C1","-","-","-","6-Phenyl-3-pyridinesulfonyl chloride","106.5 - 107.5","?C","380.0","K","","","","","","-","","-","","-","","-"
"ClC(=O)C1=CC(=CC=C1)C1=NC=CS1","-","-","-","3-(1,3-Thiazol-2-yl)benzoyl chloride","80.0 - 80.5","?C","353.2","K","","","","","","-","","-","","-","","-"
"ClC(=O)C1=CC(=CC=C1)C1=NC=CC=N1","-","-","-","3-Pyrimidin-2-ylbenzoyl chloride","136.0 - 137.0","?C","409.5","K","","","","","","-","","-","","-","","-"
"CC1=NC=CN1C1=CC=C(CN)C=C1","-","-","-","4-(2-Methyl-1H-imidazol-1-yl)benzylamine","90.5 - 91.5","?C","364.0","K","","","","","","-","","-","","-","","-"
"ClS(=O)(=O)CC1=CC=C(C=C1)C#N","-","-","-","(4-Cyanophenyl)methanesulfonyl chloride","99.5 - 101.5","?C","373.5","K","","","","","","-","","-","","-","","-"
"ClS(=O)(=O)C1=CC=C(S1)C1=CC=NO1","-","-","-","5-Isoxazol-5-ylthiophene-2-sulfonyl chloride","69.0 - 70.0","?C","342.5","K","","","","","","-","","-","","-","","-"
"[O-][N+](=O)C1=CC=C(NC(=O)CCl)C=C1","-","-","-","N1-(4-Nitrophenyl)-2-chloroacetamide","185.0 - 186.0","?C","458.5","K","","","","","","-","","-","","-","","-"
"OC(=O)C1=CC=C(C=C1)C1=NC=CC=N1","-","-","-","4-Pyrimidin-2-ylbenzoic acid","238.0 - 240.0","?C","512.0","K","","","","","","-","","-","","-","","-"
"CC1=NC=CN1C1=CC=CC(=C1)C(O)=O","-","-","-","3-(2-Methyl-1H-imidazol-1-yl)benzoic acid","182.5 - 184.5","?C","456.5","K","","","","","","-","","-","","-","","-"
"O=CC1=CC2=CC=CC=C2N=C1","-","-","-","3-Quinolinecarboxaldehyde","68.0 - 71.0","?C","342.5","K","","","","","","-","","-","","-","","-"
"OC(=O)C1=NN=C(O)C=C1","-","-","-","6-Hydroxy-3-pyridazinecarboxylic acid monohydrate","246.0 - 247.0","?C","519.5","K","","","","","","-","","-","","-","","-"
"OC(=O)C1=CN=C(O)N=C1C1=CC=NC=C1","-","-","-","2-Hydroxy-4-(4-pyridinyl)-5-pyrimidinecarboxylic acid hydrate","309.0 - 310.0","?C","582.5","K","","","","","","-","","-","","-","","-"
"CN(C(=O)CCl)C1=C2CCCCC2=NN1C","-","-","-","N1-Methyl-N1-(2-methyl-4,5,6,7-tetrahydro-2H-indazol-3-yl)-2-chloroacetamide","84.0 - 86.0","?C","358.0","K","","","","","","-","","-","","-","","-"
"FC1=C(F)C(F)=C(OC(=O)C2=CC=CN=C2)C(F)=C1F","-","-","-","Pentafluorophenyl nicotinate","65.5 - 67.0","?C","339.2","K","","","","","","-","","-","","-","","-"
"FC1=C(F)C(F)=C(OC(=O)C2=CC=NC=C2)C(F)=C1F","-","-","-","Pentafluorophenyl isonicotinate","47.5 - 55.5","?C","324.5","K","","","","","","-","","-","","-","","-"
"OC(=O)C1=NC(=CC=C1)N1CCCC1","-","-","-","6-Pyrrolidin-1-ylpyridine-2-carboxylic acid","134.5 - 136.0","?C","408.2","K","","","","","","-","","-","","-","","-"
"FC1=C(F)C(F)=C(OC(=O)C2=CC=CC(OC3=NC=CC=C3)=C2)C(F)=C1F","-","-","-","Pentafluorophenyl 3-(pyrid-2-yloxy)benzoate","60.5 - 61.5","?C","334.0","K","","","","","","-","","-","","-","","-"
"OCC1=CC(Cl)=NC=C1","-","-","-","(2-Chloro-4-pyridinyl)methanol","65.5 - 67.5","?C","339.5","K","","","","","","-","","-","","-","","-"
"CC(=O)C1=CC(Cl)=NC=C1","-","-","-","1-(2-Chloropyridin-4-yl)ethanone","36.5 - 39.0","?C","310.8","K","","","","","","-","","-","","-","","-"
"CN(C)C1(CCOCC1)C#N","-","-","-","4-(Dimethylamino)tetrahydro-2H-pyran-4-carbonitrile","51.0 - 52.0","?C","324.5","K","","","","","","-","","-","","-","","-"
"CN1C=CC(=N1)C#N","-","-","-","1-methyl-1h-pyrazole-3-carbonitrile","41.5 - 45.0","?C","316.2","K","","","","","","-","","-","","-","","-"
"CNCC1=CN=C(C=C1)C1=CC=CS1","-","-","-","N-Methyl-(6-thien-2-ylpyrid-3-yl)methylamine","65.5 - 66.5","?C","339.0","K","","","","","","-","","-","","-","","-"
"ClC(=O)C1=CC=C(C=C1)C1=NC=CC=N1","-","-","-","4-Pyrimidin-2-ylbenzoyl chloride","172.5 - 175.0","?C","446.8","K","","","","","","-","","-","","-","","-"
"CC1=NC=CN1C1=C(CN)C=CC=C1","-","-","-","2-(2-Methyl-1H-imidazol-1-yl)benzylamine","48.0 - 48.5","?C","321.2","K","","","","","","-","","-","","-","","-"
"CC1=NC=CN1C1=C(N)C=CC=C1","-","-","-","2-(2-Methyl-1H-imidazol-1-yl)aniline","132.5 - 134.5","?C","406.5","K","","","","","","-","","-","","-","","-"
"OC(=O)C1CCN(CC1)C1=NC=NC2=C1SC=C2","-","-","-","1-Thieno[3,2-d]pyrimidin-4-ylpiperidine-4-carboxylic acid","247.5 - 249.0","?C","521.2","K","","","","","","-","","-","","-","","-"
"OCC1CCN(CC1)C1=NC=NC2=C1SC=C2","-","-","-","(1-Thieno[3,2-d]pyrimidin-4-ylpiperid-4-yl)methanol","126.0 - 128.5","?C","400.2","K","","","","","","-","","-","","-","","-"
"CN1C=C(Br)C(CO)=N1","-","-","-","(4-Bromo-1-methyl-1H-pyrazol-3-yl)methanol","94.0 - 95.0","?C","367.5","K","","","","","","-","","-","","-","","-"
"ClC1=NC=CC(=N1)C1=CC=CO1","-","-","-","2-Chloro-4-(2-furyl)pyrimidine","81.5 - 82.5","?C","355.0","K","","","","","","-","","-","","-","","-"