"SMILES","CASRN","EXTERNALID","N","NAME","Melting Point","UNIT {Melting Point}","Melting Point {measured, converted}","UNIT {Melting Point}","Dataset","comment (property)","comment (chemical)","measurement method","Pressure","UNIT {Pressure}","Som set numeric condition","UNIT {Som set numeric condition}","Resp set numeric condition","UNIT {Resp set numeric condition}","Quality code","UNIT {Quality code}"
"FC(Cl)C(F)(F)C(F)(F)Cl","507-55-1","-","-","1,3-DICHLORO-1,2,2,3,3-PENTAFLUOROPROPANE","-97.0","?C","176.0","K","","","","","","-","","-","","-","","-"
"FC(F)(F)C(F)(F)C(F)(F)C(F)(F)C(F)(F)I","638-79-9","-","-","Pentane, undecafluoro-5-iodo-","-50.0","?C","223.0","K","","","","","","-","","-","","-","","-"
"FC(F)(Cl)C(Cl)(Cl)C(F)(F)Cl","677-68-9","-","-","1,2,2,3-tetrachloro-1,1,3,3-tetrafluoropropane","-42.9","?C","230.1","K","","","","","","-","","-","","-","","-"
"FC(F)(F)C(F)(F)C(F)(F)C(F)(F)C(F)(F)F","678-26-2","-","-","Pentane, dodecafluoro-","-100.0","?C","173.0","K","","","","","","-","","-","","-","","-"
"FC(F)C(F)(F)CBr","679-84-5","-","-","Halopropane","<25.0","?C","298.0","K","","","","","","-","","-","","-","","-"
"FC(F)C(F)(F)C(F)Cl","679-99-2","-","-","Propane, 1-chloro-1,2,2,3,3-pentafluoro-","85.0","?C","358.0","K","","","","","","-","","-","","-","","-"
"FC(F)(F)C#CC(F)(F)F","692-50-2","-","-","2-Butyne, 1,1,1,4,4,4-hexafluoro-","-117.4","?C","155.6","K","","","","","","-","","-","","-","","-"
"FC1=C(F)C(F)(F)C1(F)F","697-11-0","-","-","CYCLOBUTENE, HEXAFLUORO-","-60.0","?C","213.0","K","","","","","","-","","-","","-","","-"
"FC1(F)C(Cl)=C(Cl)C(F)(F)C1(F)F","706-79-6","-","-","Cyclopentene, 1,2-dichloro-3,3,4,4,5,5-hexafluor","-105.8","?C","167.2","K","","","","","","-","","-","","-","","-"
"FC(F)(F)C(F)(F)C(F)(F)I","754-34-7","-","-","Propane, 1,1,1,2,2,3,3-heptafluoro-3-iodo-","-95.0","?C","178.0","K","","","","","","-","","-","","-","","-"
"FCC(F)(F)F","811-97-2","-","-","1,1,1,2-TETRAFLUOROETHANE","-101.0","?C","172.0","K","","","","","","-","","-","","-","","-"
"OS(=O)(=O)C(F)(F)F","1493-13-6","-","-","Trifluoromethanesulfonic acid","<25.0","?C","298.0","K","","","","","","-","","-","","-","","-"
"FC(F)(F)C(Cl)(Cl)C(F)(F)Cl","1599-41-3","-","-","Propane, 1,2,2-trichloro-1,1,3,3,3-pentafluoro-","-4.3","?C","268.7","K","","","","","","-","","-","","-","","-"
"FC(F)(Cl)CCl","1649-08-7","-","-","1,2-DICHLORO-1,1-DIFLUOROETHANE","-101.2","?C","171.8","K","","","","","","-","","-","","-","","-"
"FC(F)=C(Cl)C(F)(F)F","2804-50-4","-","-","1-PROPENE, 2-CHLORO-1,1,3,3,3-PENTAFLUORO-","-130.0","?C","143.0","K","","","","","","-","","-","","-","","-"
"FC(Cl)C(F)(F)F","2837-89-0","-","-","1-Chloro-1,2,2,2-Tetrafluoroethane","-199.0","?C","74.0","K","","","","","","-","","-","","-","","-"
"CCNS(=O)(=O)C(F)(F)C(F)(F)C(F)(F)C(F)(F)C(F)(F)C(F)(F)C(F)(F)C(F)(F)F","4151-50-2","-","-","Sulfluramid","96.0","?C","369.0","K","","","","","","-","","-","","-","","-"
"FC(F)(F)C(F)(F)C(Cl)(Cl)Cl","4259-43-2","-","-","1,1,1-trichloro-2,2,3,3,3-pentafluoropropane","-80.0","?C","193.0","K","","","","","","-","","-","","-","","-"
"FC(F)OC(Cl)C(F)(F)F","26675-46-7","-","","Isoflurane","48.5","?C","321.5","K","","","","","","-","","-","","-","","-"
"FCOC(C(F)(F)F)C(F)(F)F","28523-86-6","-","-","sevoflurane","<25.0","?C","298.0","K","","","","","","-","","-","","-","","-"
"OCCC1=CC=CC=C1","60-12-8","-","-","2-phenylethanol","-27.0","?C","246.0","K","","","","","","-","","-","","-","","-"
"[H]N([H])C1=NC([H])=NN1[H]","61-82-5","-","","Amitrole","159.0","?C","432.0","K","","","","","","-","","-","","-","","-"
"ClC(Cl)=C(C1=CC=C(Cl)C=C1)C1=CC=C(Cl)C=C1","72-55-9","-","-","P,P'-DDE","89.0","?C","362.0","K","","","","","","-","","-","","-","","-"
"CC(=O)OC1CC2CCC1(C)C2(C)C","76-49-3","-","-","BORNYL ACETATE","29.0","?C","302.0","K","","","","","","-","","-","","-","","-"
"OC1=C(Br)C=C(C=C1Br)C1(OC(=O)C2=CC=CC=C12)C1=CC(Br)=C(O)C(Br)=C1","76-62-0","-","-","'3',3',5',5'-Tetrabromophenolphthalein'","296.0","?C","569.0","K","","","","","","-","","-","","-","","-"
"CC(C)C(=O)OC(C)(CCC=C(C)C)C=C","78-35-3","-","-","3,7-Dimethyl-1,6-octadien-3-yl isobutyrate","<25.0","?C","298.0","K","","","","","","-","","-","","-","","-"
"CC(C)=CCCC(C)(O)C=C","78-70-6","-","-","linalool","<25.0","?C","298.0","K","","","","","","-","","-","","-","","-"
"CC1CC=C(C)C(C=CC(C)=O)C1(C)C","79-69-6","-","-","a-Irone","<25.0","?C","298.0","K","","","","","","-","","-","","-","","-"
"CC(C)(C1=CC(Br)=C(O)C(Br)=C1)C1=CC(Br)=C(O)C(Br)=C1","79-94-7","-","-","2,2-Bis(4-hydroxy-3,5-dibromophenyl)propane","181.0","?C","454.0","K","","","","","","-","","-","","-","","-"
"CC(=O)C1=C(C)C(=C(C(=C1C)N(=O)=O)C(C)(C)C)N(=O)=O","81-14-1","-","-","Musk ketone","135.5","?C","408.5","K","","","","","","-","","-","","-","","-"
"CC1=C(C(=C(C(C)=C1N(=O)=O)N(=O)=O)C(C)(C)C)N(=O)=O","81-15-2","-","-","Benzene, 1-(1,1-dimethylethyl)-3,5-dimethyl-2,4,","110.0","?C","383.0","K","","","","","","-","","-","","-","","-"
"COC1=C(C(C)=C(C=C1C(C)(C)C)N(=O)=O)N(=O)=O","83-66-9","-","-","Benzene, 1-(1,1-dimethylethyl)-2-methoxy-4-methy","85.0","?C","358.0","K","","","","","","-","","-","","-","","-"
"CCC1=C(Br)C(Br)=C(Br)C(Br)=C1Br","85-22-3","-","-","PENTABROMOETHYLBENZENE","138.0","?C","411.0","K","","","","","","-","","-","","-","","-"
"CN(C)CCC(C1=CC=C(Br)C=C1)C1=NC=CC=C1","86-22-6","-","-","Brompheniramine","<25.0","?C","298.0","K","","","","","","-","","-","","-","","-"
"OC1=C(C=C(Br)C=C1Br)C(=O)NC1=CC=C(Br)C=C1","87-10-5","-","-","Tribromsalan","227.0","?C","500.0","K","","","","","","-","","-","","-","","-"
"BrC1=C(Br)C(Br)=C(Br)C(Br)=C1Br","87-82-1","-","-","hexabromobenzene","326.0","?C","599.0","K","","","","","","-","","-","","-","","-"
"CC1=C(Br)C(Br)=C(Br)C(Br)=C1Br","87-83-2","-","-","PENTABROMOTOLUENE","288.0","?C","561.0","K","","","","","","-","","-","","-","","-"
"CCC1=C(C=C2C(=C1)C(C)(C)CCC2(C)C)C(C)=O","88-29-9","-","-","Versalide","46.5","?C","319.5","K","","","","","","-","","-","","-","","-"
"OC(=O)C1=C(O)C=CC(Br)=C1","89-55-4","-","-","5-Bromosalicylic acid","169.8","?C","442.8","K","","","","","","-","","-","","-","","-"
"OC1=C(Br)C=C(C=C1Br)N(=O)=O","99-28-5","-","-","2,6-Dibromo-4-nitrophenol","145.0","?C","418.0","K","","","","","","-","","-","","-","","-"
"CCCCCCC(C=O)=CC1=CC=CC=C1","101-86-0","-","-","Hexyl cinnamic aldehyde","39.2","?C","312.2","K","","","","","","-","","-","","-","","-"
"COC(=O)C=CC1=CC=CC=C1","103-26-4","-","-","CINNAMIC ACID, METHYL ESTER","36.0","?C","309.0","K","","","","","","-","","-","","-","","-"
"CCOC(=O)C=CC1=CC=CC=C1","103-36-6","-","-","Cinnamic acid, ethyl ester","7.0","?C","280.0","K","","","","","","-","","-","","-","","-"
"O=COCC=CC1=CC=CC=C1","104-65-4","-","-","2-PROPEN-1-OL, 3-PHENYL-, FORMATE","0.0","?C","273.0","K","","","","","","-","","-","","-","","-"
"BrC1=CC(Br)=CC=C1","108-36-1","-","-","m-Dibromobenzene","-7.0","?C","266.0","K","","","","","","-","","-","","-","","-"
"OC1=C(Br)C=C(C=C1Br)C1(OS(=O)(=O)C2=CC=CC=C12)C1=CC(Br)=C(O)C(Br)=C1","115-39-9","-","-","Bromphenol Blue","279.0","?C","552.0","K","","","","","","-","","-","","-","","-"
"CC(C)=CCCC(C)(OC(C)=O)C=C","115-95-7","-","-","Linalyl acetate","<25.0","?C","298.0","K","","","","","","-","","-","","-","","-"
"CC1=C(C=C2C(=C1N(=O)=O)C(C)(C)CC2(C)C)N(=O)=O","116-66-5","-","-","Moskene","132.5","?C","405.5","K","","","","","","-","","-","","-","","-"
"OC1=C(Br)C=C(Br)C=C1Br","118-79-6","-","-","2,4,6-Tribromophenol","95.5","?C","368.5","K","","","","","","-","","-","","-","","-"
"O=C(OCC=CC1=CC=CC=C1)C=CC1=CC=CC=C1","122-69-0","-","-","3-PHENYLPROP-2-ENYL CINNAMATE","44.0","?C","317.0","K","","","","","","-","","-","","-","","-"
"CC(=O)C=CC1C(C)=CCCC1(C)C","127-41-3","-","-","alpha-ionone","<25.0","?C","298.0","K","","","","","","-","","-","","-","","-"
"NC1=NC(=O)C2=C(N1)N=NN2","134-58-7","-","-","8-azaguanine","300.0","?C","573.0","K","","","","","","-","","-","","-","","-"
"CC1=C(C)C(=C(C(=C1C)N(=O)=O)C(C)(C)C)N(=O)=O","145-39-1","-","-","Musk tibetine","135.5","?C","408.5","K","","","","","","-","","-","","-","","-"
"NC(CC1=CC(Br)=C(O)C(Br)=C1)C(O)=O","300-38-9","-","-","L-Tyrosine, 3,5-dibromo-","245.0","?C","518.0","K","","","","","","-","","-","","-","","-"
"CC(=O)OC1=C(C=CC(=C1)C(F)(F)F)C(O)=O","322-79-2","-","-","Triflusal","121.0","?C","394.0","K","","","","","","-","","-","","-","","-"
"FC1=C(F)C(F)=C(Br)C(F)=C1F","344-04-7","-","-","BROMOPENTAFLUOROBENZENE","-31.0","?C","242.0","K","","","","","","-","","-","","-","","-"
"FC(F)(F)C1=NC(=NC(=N1)C(F)(F)F)C(F)(F)F","368-66-1","-","-","2,4,6-Tris-(trifluoromethyl)-1,3,5-triazine","-24.8","?C","248.2","K","","","","","","-","","-","","-","","-"
"FC(F)(F)C1=CC=CC(Br)=C1","401-78-5","-","-","Benzene, 1-bromo-3-(trifluoromethyl)-","1.0","?C","274.0","K","","","","","","-","","-","","-","","-"
"OC1=C(C=C(Br)C=C1)C(=O)C(=O)C1=C(O)C=CC(Br)=C1","523-88-6","-","-","Dibromsalicil","212.5","?C","485.5","K","","","","","","-","","-","","-","","-"
"CC1=CC(Br)=C(N)C=C1","583-68-6","-","-","Benzenamine, 2-bromo-4-methyl-","26.0","?C","299.0","K","","","","","","-","","-","","-","","-"
"OC1=CC(Br)=C(O)C=C1","583-69-7","-","-","1,4-Benzenediol, 2-bromo-","111.5","?C","384.5","K","","","","","","-","","-","","-","","-"
"CC1=CC=C(Br)C(C)=C1","583-70-0","-","-","Benzene, 1-bromo-2,4-dimethyl-","-17.0","?C","256.0","K","","","","","","-","","-","","-","","-"
"CC1=C(N)C=CC(Br)=C1","583-75-5","-","-","Benzenamine, 4-bromo-2-methyl-","59.5","?C","332.5","K","","","","","","-","","-","","-","","-"
"CCOC1=CC=C(Br)C=C1","588-96-5","-","-","Benzene, 1-bromo-4-ethoxy-","4.0","?C","277.0","K","","","","","","-","","-","","-","","-"
"ClCC1=CC=C(Br)C=C1","589-17-3","-","-","p-Bromobenzyl chloride","50.0","?C","323.0","K","","","","","","-","","-","","-","","-"
"NNC1=CC=C(Br)C=C1","589-21-9","-","-","HYDRAZINE, (4-BROMOPHENYL)-","108.0","?C","381.0","K","","","","","","-","","-","","-","","-"
"OC(=O)C1=C(Br)C=CC=C1Br","601-84-3","-","-","Benzoic acid, 2,6-dibromo-","150.5","?C","423.5","K","","","","","","-","","-","","-","","-"
"COC1=C(Br)C=C(Br)C=C1Br","607-99-8","-","-","2,4,6-tribromoanisole","88.0","?C","361.0","K","","","","","","-","","-","","-","","-"
"BrC1=CC=CC(Br)=C1Br","608-21-9","-","-","1,2,3-tribromobenzene","87.5","?C","360.5","K","","","","","","-","","-","","-","","-"
"NC1=C(Br)C=CC=C1Br","608-30-0","-","-","2,6-dibromoaniline","87.5","?C","360.5","K","","","","","","-","","-","","-","","-"
"BrC1=CC(Br)=C(Br)C(Br)=C1Br","608-90-2","-","-","PENTABROMOBENZENE","160.5","?C","433.5","K","","","","","","-","","-","","-","","-"
"CC1=C(O)C(Br)=CC(Br)=C1","609-22-3","-","-","Phenol, 2,4-dibromo-6-methyl-","58.0","?C","331.0","K","","","","","","-","","-","","-","","-"
"OC(=O)C1=C(Br)C=C(Br)C=C1","611-00-7","-","-","2,4-DIBROMOBENZOIC ACID","174.0","?C","447.0","K","","","","","","-","","-","","-","","-"
"OC1=CC(Br)=CC(Br)=C1","626-41-5","-","-","3,5-DIBROMOPHENOL","81.0","?C","354.0","K","","","","","","-","","-","","-","","-"
"BrC1=CC(Br)=C(Br)C(Br)=C1","634-89-9","-","-","1,2,3,5-TETRABROMOBENZENE","99.5","?C","372.5","K","","","","","","-","","-","","-","","-"
"FC1=NC(F)=NC(F)=N1","675-14-9","-","-","2,4,6-Trifluoro-1,3,5-triazine","-38.0","?C","235.0","K","","","","","","-","","-","","-","","-"
"FC1=C(F)C(Br)=C(Br)C(F)=C1F","827-08-7","-","-","1,2-Dibromo-3,4,5,6-tetrafluorobenzene","12.0","?C","285.0","K","","","","","","-","","-","","-","","-"
"CN(C)P(=O)(N(C)C)N1N=C(N=C1N)C1=CC=CC=C1","1031-47-6","-","-","Phosphonic diamide, P-(5-amino-3-phenyl-1H-1,2,4","167.5","?C","440.5","K","","","","","","-","","-","","-","","-"
"BrC1=CC=C(C=O)C=C1","1122-91-4","-","-","Benzaldehyde, 4-bromo-","67.0","?C","340.0","K","","","","","","-","","-","","-","","-"
"NC1=C2N=NNC2=NC=N1","1123-54-2","-","","8-Azaadenine",">300.0","?C","573.0","K","","","","","","-","","-","","-","","-"
"CC1C(C)(C)C2=CC3=C(C=C2C1(C)C)C(C)COC3","1222-05-5","-","-","Galaxolide","-5.0","?C","268.0","K","","","","","","-","","-","","-","","-"
"FC1=C(Br)C=C(Br)C=C1","1435-53-6","-","-","2,4-DIBROMOFLUOROBENZENE","69.0","?C","342.0","K","","","","","","-","","-","","-","","-"
"CC(=O)OC1=CC=C(Br)C=C1C(O)=O","1503-53-3","-","-","2-(Acetyloxy)-4-bromo-benzoic acid","60.0","?C","333.0","K","","","","","","-","","-","","-","","-"
"OC1=C(Br)C=C(C=C1Br)C#N","1689-84-5","-","-","bromoxynil","190.0","?C","463.0","K","","","","","","-","","-","","-","","-"
"CCCCCCCC(=O)OC1=C(Br)C=C(C=C1Br)C#N","1689-99-2","-","-","BROMOXYNIL OCTANOATE","45.5","?C","318.5","K","","","","","","-","","-","","-","","-"
"FC1=C(F)C(C#N)=C(F)C(F)=C1C#N","1835-49-0","-","-","Tetrafluoroterephthalonitrile","198.0","?C","471.0","K","","","","","","-","","-","","-","","-"
"C=CCOC(=O)C=CC1=CC=CC=C1","1866-31-5","-","-","2-Propenoic acid, 3-phenyl-, 2-propenyl ester","268.0","?C","541.0","K","","","","","","-","","-","","-","","-"
"NC(=O)NC1=CC=C(Br)C=C1","1967-25-5","-","-","P-BROMOPHENYLUREA","226.0","?C","499.0","K","","","","","","-","","-","","-","","-"
"BrC1=CC=C(C=C1)N=[N+]=[N-]","2101-88-4","-","","BENZENE, 1-AZIDO-4-BROMO-","20.0","?C","293.0","K","","","","","","-","","-","","-","","-"
"COP(=S)(OC)OC1=CC(Cl)=C(Br)C=C1Cl","2104-96-3","-","-","bromophos","53.5","?C","326.5","K","","","","","","-","","-","","-","","-"
"O=N(=O)C1=CC=C2NN=NC2=C1","2338-12-7","-","-","5-Nitrobenzotriazole","217.0","?C","490.0","K","","","","","","-","","-","","-","","-"
"CCOP(=S)(OCC)SCN1N=NC2=CC=CC=C2C1=O","2642-71-9","-","-","Azinphos Ethyl","53.0","?C","326.0","K","","","","","","-","","-","","-","","-"
"CC1=C(C)C(Br)=C(Br)C(Br)=C1Br","2810-69-7","-","-","1,2-Dimethyltetrabromobenzene","262.0","?C","535.0","K","","","","","","-","","-","","-","","-"
"CON(C)C(=O)NC1=CC=C(Br)C=C1","3060-89-7","-","-","Metobromuron","95.0","?C","368.0","K","","","","","","-","","-","","-","","-"
"O=C1NNC(=O)N1","3232-84-6","-","-","1,2,4-Triazolidine-3,5-dione","249.5","?C","522.5","K","","","","","","-","","-","","-","","-"
"BrC1=CC=C(SC2=CC=C(Br)C=C2)C=C1","3393-78-0","-","-","Bis(4-bromophenyl) sulfide","115.0","?C","388.0","K","","","","","","-","","-","","-","","-"
"BrCC1=C(Br)C=CC=C1","3433-80-5","-","-","Benzene, 1-bromo-2-(bromomethyl)-","31.0","?C","304.0","K","","","","","","-","","-","","-","","-"
"CCC1=C(C(=O)C2=CC(Br)=C(O)C(Br)=C2)C2=C(O1)C=CC=C2","3562-84-3","-","-","Benzbromarone","151.0","?C","424.0","K","","","","","","-","","-","","-","","-"
"CN(CC1=CC(Br)=CC(Br)=C1N)C1CCCCC1","3572-43-8","-","-","2-amino-3,5-dibromo-N-cyclohexyl-N-methylbenzene","238.0","?C","511.0","K","","","","","","-","","-","","-","","-"
"CC(C)(N1N=NC2=C1C=CC=C2)C(O)=O","4233-61-8","-","-","1H-BENZOTRIAZOLE-1-ACETIC ACID, _,_-DIMETHYL-","181.5","?C","454.5","K","","","","","","-","","-","","-","","-"
"OC1=C(Cl)C=C(Cl)C=C1Br","4524-77-0","-","-","6-BROMO-2,4-DICHLOROPHENOL","68.0","?C","341.0","K","","","","","","-","","-","","-","","-"
"NC1=C(C=C(Br)C=C1)C(O)=O","5794-88-7","-","-","5-Bromoanthranilic acid","219.5","?C","492.5","K","","","","","","-","","-","","-","","-"
"ONC(=O)C1=C(O)C=CC(Br)=C1","5798-94-7","-","-","5-Bromosalicylhydroxamic Acid","232.0","?C","505.0","K","","","","","","-","","-","","-","","-"
"C(N1C=NC=N1)C1=CC=CC=C1","6085-94-5","-","-","1H-1,2,4-Triazole, 1-(phenylmethyl)-","49.0","?C","322.0","K","","","","","","-","","-","","-","","-"
"OC(=O)C1=CC(=C(Br)C=C1)N(=O)=O","6319-40-0","-","-","Benzoic acid, 4-bromo-3-nitro-","203.5","?C","476.5","K","","","","","","-","","-","","-","","-"
"OC1=CC(O)=C(Br)C=C1","6626-15-9","-","-","4-BROMORESORCINOL","103.0","?C","376.0","K","","","","","","-","","-","","-","","-"
"CC1=CC(C)=C(Br)C(C)=C1Br","6942-99-0","-","-","BENZENE, 2,4-DIBROMO-1,3,5-TRIMETHYL-","65.5","?C","338.5","K","","","","","","-","","-","","-","","-"
"OC1=CC=C(Br)C=C1N(=O)=O","7693-52-9","-","-","4-BROMO-2-NITROPHENOL","92.0","?C","365.0","K","","","","","","-","","-","","-","","-"
"OC1(CCN(CCCC(=O)C2=CC=C(F)C=C2)CC1)C1=CC=C(Br)C=C1","10457-90-6","-","-","Bromperidol","155.0","?C","428.0","K","","","","","","-","","-","","-","","-"
"CON(C)C(=O)NC1=CC=C(Br)C(Cl)=C1","13360-45-7","-","-","Chlorbromuron","96.0","?C","369.0","K","","","","","","-","","-","","-","","-"
"BrC1=C(Br)C(Br)=C(C(Br)=C1Br)C1=C(Br)C(Br)=C(Br)C(Br)=C1Br","13654-09-6","-","-","DECABROMOBIPHENYL","375.0","?C","648.0","K","","","","","","-","","-","","-","","-"
"OC1=C(Br)C=C(Br)C(Br)=C1Br","14400-94-3","-","-","2,3,4,6-TETRABROMOPHENOL","113.5","?C","386.5","K","","","","","","-","","-","","-","","-"
"CC(C)(N1N=C2C=CC=CC2=N1)C(O)=O","16583-98-5","-","-","2H-BENZOTRIAZOLE-2-ACETIC ACID, _,_-DIMETHYL-","152.5","?C","425.5","K","","","","","","-","","-","","-","","-"
"ClC1=CC(Br)=CC(Cl)=C1","19752-55-7","-","-","Benzene, 1-bromo-3,5-dichloro-","83.0","?C","356.0","K","","","","","","-","","-","","-","","-"
"ClC1=CC=CC(=C1)N1CCN(CCCN2N=C3C=CC=CN3C2=O)CC1","19794-93-5","-","-","Trazodone","87.0","?C","360.0","K","","","","","","-","","-","","-","","-"
"OC1=CC=CC(O)=C1C(=O)NC1=CC=C(Br)C=C1","20788-07-2","-","-","Resorantel","229.0","?C","502.0","K","","","","","","-","","-","","-","","-"
"CCOP(=S)(OCC)OC1=NN(C=N1)C1=CC=CC=C1","24017-47-8","-","-","Triazophos","3.5","?C","276.5","K","","","","","","-","","-","","-","","-"
"CCCCCC1C(CC(=O)OC)CCC1=O","24851-98-7","-","-","Cyclopentaneacetic acid, 3-oxo-2-pentyl-, methyl","-10.0","?C","263.0","K","","","","","","-","","-","","-","","-"
"CCN(CC)CCOCC1=CC(Br)=CC(Br)=C1OC","25333-96-4","-","-","Spasmolytol","<25.0","?C","298.0","K","","","","","","-","","-","","-","","-"
"BrC1=C(Br)C(Br)=C(C=C1)C1=C(Br)C(Br)=C(Br)C(Br)=C1Br","27858-07-7","-","-","1,1'-Biphenyl, ar,ar,ar,ar,ar',ar',ar',ar'-octab","225.0","?C","498.0","K","","","","","","-","","-","","-","","-"
"ClC1=CC2=C(C=C1)N1C=NN=C1CN=C2C1=CC=CC=C1","29975-16-4","-","-","ESTAZOLAM","228.5","?C","501.5","K","","","","","","-","","-","","-","","-"
"CC1=CC=C(Br)C=C1Br","31543-75-6","-","-","Benzene, 2,4-dibromo-1-methyl-","-9.7","?C","263.3","K","","","","","","-","","-","","-","","-"
"CC(=O)OC1CCC(CC1)C(C)(C)C","32210-23-4","-","-","Cyclohexanol, 4-(1,1-dimethylethyl)-, acetate","-50.0","?C","223.0","K","","","","","","-","","-","","-","","-"
"CCCSP(=O)(OCC)OC1=CC=C(Br)C=C1Cl","41198-08-7","-","-","Profenofos","<25.0","?C","298.0","K","","","","","","-","","-","","-","","-"
"CC1=CC=CC2=C1N1C=NN=C1S2","41814-78-2","-","-","tricyclazole","187.0","?C","460.0","K","","","","","","-","","-","","-","","-"
"CCOP(=S)(OCC)OC1=NN(C(C)C)C(Cl)=N1","42509-80-8","-","-","Isazofos","<25.0","?C","298.0","K","","","","","","-","","-","","-","","-"
"COC(=O)CS(=O)(=O)C1=CC=C(Br)C=C1","50397-65-4","-","-","ACETIC ACID, [(4-BROMOPHENYL)SULFONYL]-, METHYL","82.0","?C","355.0","K","","","","","","-","","-","","-","","-"
"CC1=CC(=CC(Br)=C1)N(=O)=O","52488-28-5","-","-","1-Bromo-3-methyl-5-nitrobenzene","83.0","?C","356.0","K","","","","","","-","","-","","-","","-"
"O=C1CCCCCCCCCCC(=O)OCCO1","54982-83-1","-","-","1,4-DIOXACYCLOHEXADECANE-5,16-DIONE","18.0","?C","291.0","K","","","","","","-","","-","","-","","-"
"CN(C1=C(Br)C=C(Br)C=C1Br)C1=C(C=C(C=C1C(F)(F)F)N(=O)=O)N(=O)=O","63333-35-7","-","-","BROMETHALIN","150.5","?C","423.5","K","","","","","","-","","-","","-","","-"
"ClC1=CC(Cl)=C(OCC#C)C=C1N1N=C2CCCCN2C1=O","68049-83-2","-","-","Azafenidin","168.0","?C","441.0","K","","","","","","-","","-","","-","","-"
"CC1=CC(O)=CC(Br)=C1","74204-00-5","-","-","3-Bromo-5-methylphenol","56.5","?C","329.5","K","","","","","","-","","-","","-","","-"
"CCOC(=O)C(C)N1N=C2C=CC=CC2=N1","75584-51-9","-","-","2H-BENZOTRIAZOLE-2-ACETIC ACID, _-METHYL-, ETHYL","39.5","?C","312.5","K","","","","","","-","","-","","-","","-"
"OC(CN1C=NC=N1)(C1=CC=C(F)C=C1)C1=CC=CC=C1F","76674-21-0","-","-","FLUTRIAFOL (PP450)","130.0","?C","403.0","K","","","","","","-","","-","","-","","-"
"CC1=C(F)C(F)=C(COC(=O)C2C(C=C(Cl)C(F)(F)F)C2(C)C)C(F)=C1F","79538-32-2","-","-","Tetrafluthrin","44.6","?C","317.6","K","","","","","","-","","-","","-","","-"
"CCCCC(O)(CN1C=NC=N1)C1=C(Cl)C=C(Cl)C=C1","79983-71-4","-","-","Hexaconazole","111.0","?C","384.0","K","","","","","","-","","-","","-","","-"