"SMILES","CASRN","EXTERNALID","N","NAME","Melting Point","UNIT {Melting Point}","Melting Point {measured, converted}","UNIT {Melting Point}","Dataset","comment (property)","comment (chemical)","measurement method","Pressure","UNIT {Pressure}","Som set numeric condition","UNIT {Som set numeric condition}","Resp set numeric condition","UNIT {Resp set numeric condition}","Quality code","UNIT {Quality code}"
"CCC1=NNC2=C1C(C1=CC=CC=C1)C(C#N)=C(N)O2","-","-","-","6-Amino-3-ethyl-4-phenyl-1,4-dihydropyrano[2,3-c]pyrazole-5-carbonitrile","192.0 - 196.0","?C","467.0","K","","","","","","-","","-","","-","","-"
"OC(=O)C1=CC=C(CN2CCS(=O)(=O)CC2)C=C1","-","-","-","4-(4'-Carboxybenzyl)thiomorpholine 1,1-dioxide","222.0 - 223.0","?C","495.5","K","","","","","","-","","-","","-","","-"
"O=C1NC(=CC(C2=CC=CS2)=C1C#N)C1=CC=CO1","-","-","-","6-(2-Furyl)-2-hydroxy-4-(2-thienyl)nicotinonitrile","318.0 - 320.0","?C","592.0","K","","","","","","-","","-","","-","","-"
"NC1=NC(=NC=C1C#N)N1CCCCC1","-","-","-","4-Amino-2-piperidino-5-pyrimidinecarbonitrile","220.0 - 222.0","?C","494.0","K","","","","","","-","","-","","-","","-"
"COC1=C(OC)C=C(C=C1)C(=O)CC1=CC=CC=C1","-","-","-","1-(3,4-Dimethoxyphenyl)-2-phenylethan-1-one","87.0 - 88.0","?C","360.5","K","","","","","","-","","-","","-","","-"
"BrC1=CC2=C(NC3=CC=CC=C23)C=C1","-","-","-","3-Bromo-9H-carbazole","195.0 - 197.0","?C","469.0","K","","","","","","-","","-","","-","","-"
"CC(=O)C1C(=O)C2=CC=CC(=C2C1=O)[N+]([O-])=O","-","-","-","2-Acetyl-4-nitroindane-1,3-dione","147.0 - 150.0","?C","421.5","K","","","","","","-","","-","","-","","-"
"CC(C)(C)C1=CC(=NN1)C(F)(F)F","-","-","-","5-(tert-Butyl)-3-(trifluoromethyl)-1H-pyrazole","178.0 - 180.0","?C","452.0","K","","","","","","-","","-","","-","","-"
"COC(=O)C1(C)CCC(C(O)=O)C1(C)C","-","-","-","3-(Methoxycarbonyl)-2,2,3-trimethylcyclopentane-1-carboxylic acid","74.0 - 78.0","?C","349.0","K","","","","","","-","","-","","-","","-"
"CC(C)(C)C1=CC(=NC(N)=N1)C(F)(F)F","-","-","-","4-(tert-Butyl)-6-(trifluoromethyl)pyrimidin-2-amine","48.0 - 50.0","?C","322.0","K","","","","","","-","","-","","-","","-"
"ClC1(C(=O)C2=CC=CC=C2C1=O)C1=CC=CC=C1","-","-","-","2-Chloro-2-phenylindane-1,3-dione","115.0 - 116.0","?C","388.5","K","","","","","","-","","-","","-","","-"
"O=C1NC(=O)C2(CCCCC2)N1","-","-","-","1,3-Diazaspiro[4.5]decane-2,4-dione","218.0 - 220.0","?C","492.0","K","","","","","","-","","-","","-","","-"
"CC12CC3(C)CC(C)(C1)CC(Br)(C2)C3","-","-","-","1-Bromo-3,5,7-trimethyladamantane","101.0 - 102.0","?C","374.5","K","","","","","","-","","-","","-","","-"
"NC1=NC(=CS1)C1=CC=C2C(CC3=C2C=CC=C3)=C1","-","-","-","4-(9H-Fluoren-2-yl)-1,3-thiazol-2-amine","261.0 - 264.0","?C","535.5","K","","","","","","-","","-","","-","","-"
"CC1=NC(COC2=CC=C(C=C2)C(N)=NO)=CS1","-","-","-","N'-Hydroxy-4-[(2-methyl-1,3-thiazol-4-yl)methoxy]benzenecarboximidamide","193.0 - 194.0","?C","466.5","K","","","","","","-","","-","","-","","-"
"[O-][N+](=O)C1=C(Cl)C=CC(=C1)C(=O)CBr","-","-","-","2-Bromo-1-(4-chloro-3-nitrophenyl)ethan-1-one","83.0 - 85.0","?C","357.0","K","","","","","","-","","-","","-","","-"
"CC1=NOC(N)=C1[N+]([O-])=O","-","-","-","3-Methyl-4-nitroisoxazol-5-amine","154.0 - 156.0","?C","428.0","K","","","","","","-","","-","","-","","-"
"CC1=NC2=CC=CC=C2C(C(O)=O)=C1C(O)=O","-","-","-","2-Methylquinoline-3,4-dicarboxylic acid","225.0 - 233.0","?C","502.0","K","","","","","","-","","-","","-","","-"
"CN1N=C(C=C1N)C1CC1","-","-","-","3-Cyclopropyl-1-methyl-1H-pyrazol-5-amine","120.0 - 123.0","?C","394.5","K","","","","","","-","","-","","-","","-"
"CC(C)(C)C1=NNC(N)=C1","-","-","-","3-(tert-Butyl)-1H-pyrazol-5-amine","60.0 - 62.0","?C","334.0","K","","","","","","-","","-","","-","","-"
"CC1=NC2=CC=CC=C2C(C(O)=O)=C1N","-","-","-","3-Amino-2-methylquinoline-4-carboxylic acid","204.0 - 205.0","?C","477.5","K","","","","","","-","","-","","-","","-"
"COC(=O)C1=CSC=C1OC","-","-","-","Methyl 4-methoxythiophene-3-carboxylate","70.0 - 71.0","?C","343.5","K","","","","","","-","","-","","-","","-"
"COC1=CSC=C1C(O)=O","-","-","-","4-Methoxythiophene-3-carboxylic acid","105.0 - 108.0","?C","379.5","K","","","","","","-","","-","","-","","-"
"COC1=C(Cl)SC=C1C(O)=O","-","-","-","5-Chloro-4-methoxythiophene-3-carboxylic acid","140.0","?C","413.0","K","","","","","","-","","-","","-","","-"
"COC1=C(Cl)SC=C1C(Cl)=O","-","-","-","5-Chloro-4-methoxythiophene-3-carbonyl chloride","66.0 - 68.0","?C","340.0","K","","","","","","-","","-","","-","","-"
"COC1=C(Br)SC=C1C(O)=O","-","-","-","5-Bromo-4-methoxythiophene-3-carboxylic acid","155.0 - 156.0","?C","428.5","K","","","","","","-","","-","","-","","-"
"COC1=C(Br)SC=C1C(Cl)=O","-","-","-","5-Bromo-4-methoxythiophene-3-carbonyl chloride","79.0 - 82.0","?C","353.5","K","","","","","","-","","-","","-","","-"
"NC=C(C#N)S(=O)(=O)C1=CC=C(Cl)C=C1","-","-","-","3-Amino-2-[(4-chlorophenyl)sulfonyl]acrylonitrile","213.0 - 214.0","?C","486.5","K","","","","","","-","","-","","-","","-"
"CN1N=CC(C(N)=O)=C1N","-","-","-","5-Amino-1-methyl-1H-pyrazole-4-carboxamide","231.0 - 232.0","?C","504.5","K","","","","","","-","","-","","-","","-"
"CN1N=C(C=C1N)C1=CC=CS1","-","-","-","1-Methyl-3-(2-thienyl)-1H-pyrazol-5-amine","139.0 - 140.0","?C","412.5","K","","","","","","-","","-","","-","","-"
"ON1C(CCCl)OC2=CC=CC=C2C1=O","-","-","-","2-(2-Chloroethyl)-3-hydroxy-3,4-dihydro-2H-1,3-benzoxazin-4-one","114.0 - 116.0","?C","388.0","K","","","","","","-","","-","","-","","-"
"COC(=O)C1=CC=CC=C1SCC#N","-","-","-","Methyl 2-[(cyanomethyl)thio]benzoate","121.0 - 123.5","?C","395.2","K","","","","","","-","","-","","-","","-"
"COC(=O)C1=C(N)C(=CS1)C#N","-","-","-","Methyl 3-amino-4-cyanothiophene-2-carboxylate","149.0 - 150.0","?C","422.5","K","","","","","","-","","-","","-","","-"
"CC1=NN2C(=C1)N=NC(C(O)=O)=C2C","-","-","-","4,7-Dimethylpyrazolo[5,1-c][1,2,4]triazine-3-carboxylic acid","166.0 - 168.0","?C","440.0","K","","","","","","-","","-","","-","","-"
"CN1N=C(C=C1N)C1=CC=CC=C1","-","-","-","1-methyl-3-phenyl-1H-pyrazol-5-amine","132.0 - 135.0","?C","406.5","K","","","","","","-","","-","","-","","-"
"CSC1=C(C#N)C(=C(S1)C(O)=O)C1=CC=C(Cl)C=C1","-","-","-","3-(4-Chlorophenyl)-4-cyano-5-(methylthio)thiophene-2-carboxylic acid","241.0 - 243.0","?C","515.0","K","","","","","","-","","-","","-","","-"
"N#CCSC1=CC2=CC=CC=C2C=C1","-","-","-","2-(2-Naphthylthio)acetonitrile","83.0 - 86.0","?C","357.5","K","","","","","","-","","-","","-","","-"
"CCOC=C(C#N)S(=O)(=O)C1=CC2=CC=CC=C2C=C1","-","-","-","3-Ethoxy-2-(2-naphthylsulfonyl)acrylonitrile","90.0 - 92.5","?C","364.2","K","","","","","","-","","-","","-","","-"
"CC1=C(SC=C1S(=O)(=O)C1=CC=C(Cl)C=C1)C(O)=O","-","-","-","4-[(4-Chlorophenyl)sulfonyl]-3-methylthiophene-2-carboxylic acid","252.0 - 256.0","?C","527.0","K","","","","","","-","","-","","-","","-"
"CCOC(=O)CN1C=NC(Cl)=C1Cl","-","-","-","Ethyl 2-(4,5-dichloro-1H-imidazol-1-yl)acetate","65.0 - 67.0","?C","339.0","K","","","","","","-","","-","","-","","-"
"FC1=CC=C(C=C1)S(=O)(=O)CC#N","-","-","-","2-[(4-Fluorophenyl)sulfonyl]acetonitrile","87.0 - 89.0","?C","361.0","K","","","","","","-","","-","","-","","-"
"ClC1=C(Cl)N=C(Br)N1","-","-","-","2-Bromo-4,5-dichloro-1H-imidazole","215.0 - 216.0","?C","488.5","K","","","","","","-","","-","","-","","-"
"CS(=O)(=O)C1=NOC(C2=CC=CS2)=C1C#N","-","-","-","3-(Methylsulfonyl)-5-(2-thienyl)isoxazole-4-carbonitrile","167.0 - 168.0","?C","440.5","K","","","","","","-","","-","","-","","-"
"NC(=S)CN1C=NC(Cl)=C1Cl","-","-","-","2-(4,5-Dichloro-1H-imidazol-1-yl)ethanethioamide","204.0 - 207.0","?C","478.5","K","","","","","","-","","-","","-","","-"
"NC1=CC(=NN1)C1=CC=C(Cl)C=C1","-","-","-","3-(4-Chlorophenyl)-1H-pyrazol-5-amine","174.0 - 176.0","?C","448.0","K","","","","","","-","","-","","-","","-"
"CC1=NN2C(=C1)N=CC(C(O)=O)=C2C","-","-","-","2,7-Dimethylpyrazolo[1,5-a]pyrimidine-6-carboxylic acid","250.0 - 251.0","?C","523.5","K","","","","","","-","","-","","-","","-"
"COC1=CSC=C1C(N)=O","-","-","-","4-Methoxythiophene-3-carboxamide","120.0 - 121.0","?C","393.5","K","","","","","","-","","-","","-","","-"
"CCOC(=O)C1=C(C)N2N=C(C=C2N=C1)C1=CC=CS1","-","-","-","Ethyl 7-methyl-2-(2-thienyl)pyrazolo[1,5-a]pyrimidine-6-carboxylate","151.0 - 153.0","?C","425.0","K","","","","","","-","","-","","-","","-"
"NC1=C(SC=C1S(=O)(=O)C1=CC=CC=C1)C(O)=O","-","-","-","3-Amino-4-(phenylsulfonyl)thiophene-2-carboxylic acid","174.0 - 176.0","?C","448.0","K","","","","","","-","","-","","-","","-"
"NC1=CSC=C1S(=O)(=O)C1=CC=CC=C1","-","-","-","4-(Phenylsulfonyl)thiophen-3-amine","125.0 - 126.0","?C","398.5","K","","","","","","-","","-","","-","","-"
"CC1=CC=CC(=C1)C(=O)CC#N","-","-","-","3-(3-Methylphenyl)-3-oxopropanenitrile","73.0 - 75.0","?C","347.0","K","","","","","","-","","-","","-","","-"
"CCSC1=NC=CC=C1C(=O)NC(CCSC)C(O)=O","-","-","-","2-({[2-(Ethylthio)-3-pyridyl]carbonyl}amino)-4-(methylthio)butanoic acid","121.0 - 122.0","?C","394.5","K","","","","","","-","","-","","-","","-"
"CSCCC(NC(=O)C1=CC=CN=C1SC)C(O)=O","-","-","-","4-(Methylthio)-2-({[2-(methylthio)-3-pyridyl]carbonyl}amino)butanoic acid","157.0 - 161.0","?C","432.0","K","","","","","","-","","-","","-","","-"
"COC(=O)C1=C(N)C(=CS1)S(=O)(=O)C(C)C","-","-","-","Methyl 3-amino-4-(isopropylsulfonyl)thiophene-2-carboxylate","139.0 - 143.0","?C","414.0","K","","","","","","-","","-","","-","","-"
"COC(=O)C1=C(N)C(=CS1)S(C)(=O)=O","-","-","-","Methyl 3-amino-4-(methylsulfonyl)thiophene-2-carboxylate","145.0","?C","418.0","K","","","","","","-","","-","","-","","-"
"CN1C=C(Br)C(=N1)C1=CC(N)=CC=C1","-","-","-","3-(4-Bromo-1-methyl-1H-pyrazol-3-yl)aniline","95.0 - 97.0","?C","369.0","K","","","","","","-","","-","","-","","-"
"COC(=O)C1=C(N2C=CC=C2)C(=CS1)C#N","-","-","-","Methyl 4-cyano-3-(1H-pyrrol-1-yl)thiophene-2-carboxylate","87.0 - 90.0","?C","361.5","K","","","","","","-","","-","","-","","-"
"NC1=CC=CC=C1SCCS(=O)(=O)C1=CC=C(Cl)C=C1","-","-","-","2-({2-[(4-Chlorophenyl)sulfonyl]ethyl}thio)aniline","135.0 - 137.0","?C","409.0","K","","","","","","-","","-","","-","","-"
"CS(=O)(=O)C1=CSC(C(O)=O)=C1Cl","-","-","-","3-Chloro-4-(methylsulfonyl)thiophene-2-carboxylic acid","234.0 - 236.0","?C","508.0","K","","","","","","-","","-","","-","","-"
"CS(=O)(=O)C1=CSC(C(Cl)=O)=C1Cl","-","-","-","3-Chloro-4-(methylsulfonyl)thiophene-2-carbonyl chloride","181.0 - 185.0","?C","456.0","K","","","","","","-","","-","","-","","-"
"CC(C)S(=O)(=O)C1=CSC(C(O)=O)=C1N","-","-","-","3-Amino-4-(isopropylsulfonyl)thiophene-2-carboxylic acid","158.0","?C","431.0","K","","","","","","-","","-","","-","","-"
"CC1=NC(=CC=N1)C1=CC=CC(N)=C1","-","-","-","3-(2-Methylpyrimidin-4-yl)aniline","108.0 - 109.0","?C","381.5","K","","","","","","-","","-","","-","","-"
"CCOC(=O)C(=CNC1=CC(C)=NN1C)C(=O)OCC","-","-","-","Diethyl 2-[[(1,3-dimethyl-1H-pyrazol-5-yl)amino]methylidene]malonate","85.0 - 88.0","?C","359.5","K","","","","","","-","","-","","-","","-"
"CCOC(=O)C1=CN=C2N(C)N=C(C)C2=C1Cl","-","-","-","Ethyl 4-chloro-1,3-dimethyl-1H-pyrazolo[3,4-b]pyridine-5-carboxylate","87.0 - 90.0","?C","361.5","K","","","","","","-","","-","","-","","-"
"CN1N=C(C)C2=C1N=CC(C(O)=O)=C2Cl","-","-","-","4-Chloro-1,3-dimethyl-1H-pyrazolo[3,4-b]pyridine-5-carboxylic acid","269.0","?C","542.0","K","","","","","","-","","-","","-","","-"
"CN1N=C(C)C2=C1N=CC(C(N)=O)=C2Cl","-","-","-","4-Chloro-1,3-dimethyl-1H-pyrazolo[3,4-b]pyridine-5-carboxamide","275.0","?C","548.0","K","","","","","","-","","-","","-","","-"
"CCOC(=O)C1=C(OC2=CC=C(OC)C=C2)C2=C(N=C1)N(C)N=C2C","-","-","-","Ethyl 4-(4-methoxyphenoxy)-1,3-dimethyl-1H-pyrazolo[3,4-b]pyridine-5-carboxylate","92.0 - 93.5","?C","365.8","K","","","","","","-","","-","","-","","-"
"CCOC(=O)C1=C(OC2=CC=C(F)C=C2)C2=C(N=C1)N(C)N=C2C","-","-","-","Ethyl 4-(4-fluorophenoxy)-1,3-dimethyl-1H-pyrazolo[3,4-b]pyridine-5-carboxylate","110.0 - 111.5","?C","383.8","K","","","","","","-","","-","","-","","-"
"CCOC(=O)C1=C(OC2=CC(Cl)=CC(Cl)=C2)C2=C(N=C1)N(C)N=C2C","-","-","-","Ethyl 4-(3,5-dichlorophenoxy)-1,3-dimethyl-1H-pyrazolo[3,4-b]pyridine-5-carboxylate","115.0 - 117.0","?C","389.0","K","","","","","","-","","-","","-","","-"
"CN1N=C(C)C2=C1N=C(NN)C=C2C","-","-","-","6-Hydrazino-1,3,4-trimethyl-1H-pyrazolo[3,4-b]pyridine","199.0 - 205.0","?C","475.0","K","","","","","","-","","-","","-","","-"
"CC(C)S(=O)(=O)C1=CN=C(N=C1N)C1=CN=CC=C1","-","-","-","5-(Isopropylsulfonyl)-2-(3-pyridyl)pyrimidin-4-amine","225.0 - 228.0","?C","499.5","K","","","","","","-","","-","","-","","-"
"COC(=O)C1=C(N)C(=C(SC)S1)S(=O)(=O)C(C)C","-","-","-","Methyl 3-amino-4-(isopropylsulfonyl)-5-(methylthio)thiophene-2-carboxylate","151.0 - 155.0","?C","426.0","K","","","","","","-","","-","","-","","-"
"COC1=CC=C(C=C1)C1=C(SC(SC)=C1C#N)C(O)=O","-","-","-","4-Cyano-3-(4-methoxyphenyl)-5-(methylthio)thiophene-2-carboxylic acid","209.0 - 214.0","?C","484.5","K","","","","","","-","","-","","-","","-"
"CC(C)(C)S(=O)(=O)C1=CN=C(N=C1N)N1CCCC1","-","-","-","5-(tert-Butylsulfonyl)-2-tetrahydro-1H-pyrrol-1-ylpyrimidin-4-amine","199.0 - 201.0","?C","473.0","K","","","","","","-","","-","","-","","-"
"CC(C)(C)S(=O)(=O)C1=CN=C(N=C1N)N1CCOCC1","-","-","-","5-(tert-Butylsulfonyl)-2-morpholinopyrimidin-4-amine","196.0 - 198.0","?C","470.0","K","","","","","","-","","-","","-","","-"
"COC(=O)C1=C(I)C(=C(SC)S1)S(=O)(=O)C(C)C","-","-","-","Methyl 3-iodo-4-(isopropylsulfonyl)-5-(methylthio)thiophene-2-carboxylate","193.0 - 195.0","?C","467.0","K","","","","","","-","","-","","-","","-"
"FC1=C(Cl)C=C(NC(=O)CCl)C=C1","-","-","-","N1-(3-Chloro-4-fluorophenyl)-2-chloroacetamide","96.0 - 98.0","?C","370.0","K","","","","","","-","","-","","-","","-"
"ClCC(=O)NCC1=CC=CC(Cl)=C1","-","-","-","N1-(3-Chlorophenyl)-2-chloroacetamide","93.0 - 95.0","?C","367.0","K","","","","","","-","","-","","-","","-"
"CC(C)S(=O)(=O)C1=CN=C(N)N=C1N","-","-","-","5-(tert-Butylsulfonyl)pyrimidine-2,4-diamine","298.0 - 301.0","?C","572.5","K","","","","","","-","","-","","-","","-"
"CC(C)C1=CC=C(NC(=O)CCl)C=C1","-","-","-","N1-(4-Isopropylphenyl)-2-chloroacetamide","132.0 - 135.0","?C","406.5","K","","","","","","-","","-","","-","","-"
"CC(C)(C)S(=O)(=O)C1=CN=C(N=C1N)C1=CC=CC=N1","-","-","-","5-(tert-Butylsulfonyl)-2-(2-pyridyl)pyrimidin-4-amine","266.0 - 268.0","?C","540.0","K","","","","","","-","","-","","-","","-"
"CCOC(=O)C1=CSC(CN2C=NC(Cl)=C2Cl)=N1","-","-","-","Ethyl 2-[(4,5-dichloro-1H-imidazol-1-yl)methyl]-1,3-thiazole-4-carboxylate","126.0 - 129.0","?C","400.5","K","","","","","","-","","-","","-","","-"
"CSC1=C(C(Cl)=C(S1)C(O)=O)S(=O)(=O)C(C)C","-","-","-","3-Chloro-4-(isopropylsulfonyl)-5-(methylthio)thiophene-2-carboxylic acid","227.0 - 230.0","?C","501.5","K","","","","","","-","","-","","-","","-"
"CC1=CSC=C1S(=O)(=O)C1=CC=C(Cl)C=C1","-","-","-","3-[(4-Chlorophenyl)sulfonyl]-4-methylthiophene","102.5 - 104.5","?C","376.5","K","","","","","","-","","-","","-","","-"
"CCOC(=O)C1CN(CC2=CC=CO2)C(=O)C1=O","-","-","-","Ethyl 1-(2-furylmethyl)-4,5-dioxopyrrolidine-3-carboxylate","127.0 - 129.0","?C","401.0","K","","","","","","-","","-","","-","","-"
"CC(C)S(=O)(=O)C1=CSC(C(Cl)=O)=C1Cl","-","-","-","3-Chloro-4-(isopropylsulfonyl)thiophene-2-carbonyl chloride","170.0 - 171.0","?C","443.5","K","","","","","","-","","-","","-","","-"
"COC(=O)C1=C(N)C(C#N)=C(S1)N1CCCCC1","-","-","-","Methyl 3-amino-4-cyano-5-piperidinothiophene-2-carboxylate","184.0 - 185.0","?C","457.5","K","","","","","","-","","-","","-","","-"
"COC(=O)C1=C(N)C(C#N)=C(S1)N(C)C","-","-","-","Methyl 3-amino-4-cyano-5-(dimethylamino)thiophene-2-carboxylate","240.0 - 243.0","?C","514.5","K","","","","","","-","","-","","-","","-"
"FC(F)(F)C1=NC2=C(C=NN2C(=C1)C(F)(F)F)C#N","-","-","-","5,7-Di(trifluoromethyl)pyrazolo[1,5-a]pyrimidine-3-carbonitrile","75.0 - 77.0","?C","349.0","K","","","","","","-","","-","","-","","-"
"NC(=S)CS(=O)(=O)C1=CC=CS1","-","-","-","2-(2-Thienylsulfonyl)ethanethioamide","160.0 - 164.0","?C","435.0","K","","","","","","-","","-","","-","","-"
"NC(=O)C1=CC=C(S1)C1=NC=CC=C1","-","-","-","5-(2-Pyridyl)thiophene-2-carboxamide","197.0 - 199.0","?C","471.0","K","","","","","","-","","-","","-","","-"
"CCSC1=C2C(CC(C)(C)CC2=O)=C(S1)C(=O)OC","-","-","-","Methyl 3-(ethylthio)-6,6-dimethyl-4-oxo-4,5,6,7-tetrahydrobenzo[c]thiophene-1-carboxylate","116.0 - 119.0","?C","390.5","K","","","","","","-","","-","","-","","-"
"CCCSC1=C2C(CC(C)(C)CC2=O)=C(S1)C(=O)OC","-","-","-","Methyl 6,6-dimethyl-4-oxo-3-(propylthio)-4,5,6,7-tetrahydrobenzo[c]thiophene-1-carboxylate","95.0 - 98.0","?C","369.5","K","","","","","","-","","-","","-","","-"
"NC(=S)C1=CC=C(C=C1)C1OCCO1","-","-","-","4-(1,3-Dioxolan-2-yl)benzene-1-carbothioamide","150.0 - 154.0","?C","425.0","K","","","","","","-","","-","","-","","-"
"CCOC(=O)C1=C2CC(C)(C)CC(=O)C2=C(SC(C)C)S1","-","-","-","Ethyl 3-(isopropylthio)-6,6-dimethyl-4-oxo-4,5,6,7-tetrahydrobenzo[c]thiophene-1-carboxylate","87.0 - 89.0","?C","361.0","K","","","","","","-","","-","","-","","-"
"CCOC(=O)C1=C2C(=C(SC)S1)S(=O)(=O)N(C)C1=C2C=CC=C1","-","-","-","Ethyl 5-Me-3-(methylthio)-4,4-dioxo-5H-thieno[3,4-c][2,1]benzothiazine-1-carboxylate","190.0 - 193.0","?C","464.5","K","","","","","","-","","-","","-","","-"
"CCCCSC1=C2C(CCCC2=O)=C(S1)C(=O)OCC","-","-","-","Ethyl 3-(butylthio)-4-oxo-4,5,6,7-tetrahydrobenzo[c]thiophene-1-carboxylate","70.0 - 73.0","?C","344.5","K","","","","","","-","","-","","-","","-"
"CCOC(=O)C1=C2CCCC(=O)C2=C(SC)S1","-","-","-","Ethyl 3-(methylthio)-4-oxo-4,5,6,7-tetrahydrobenzo[c]thiophene-1-carboxylate","108.0 - 111.0","?C","382.5","K","","","","","","-","","-","","-","","-"
"CSC1=C2C(CC(C)(C)CC2=O)=C(S1)C#N","-","-","-","6,6-Dimethyl-3-(methylthio)-4-oxo-4,5,6,7-tetrahydrobenzo[c]thiophene-1-carbonitrile","169.0 - 171.0","?C","443.0","K","","","","","","-","","-","","-","","-"
"CCOC=C(C#N)S(=O)(=O)CC1=CC=CO1","-","-","-","3-Ethoxy-2-[(2-furylmethyl)sulfonyl]acrylonitrile","98.0 - 100.0","?C","372.0","K","","","","","","-","","-","","-","","-"
"CCOC(=O)C1=C2CCCC(O)C2=C(SC)S1","-","-","-","Ethyl 4-hydroxy-3-(methylthio)-4,5,6,7-tetrahydrobenzo[c]thiophene-1-carboxylate","119.0 - 122.0","?C","393.5","K","","","","","","-","","-","","-","","-"
"O=C1NCCSC1C1=CC=CC=C1","-","-","-","2-Phenylthiomorpholin-3-one","158.0 - 162.0","?C","433.0","K","","","","","","-","","-","","-","","-"
"CCOC(=O)C1=C(C)C2=C(SC(C#N)=C2C)S1","-","-","-","Ethyl 5-cyano-3,4-dimethylthieno[2,3-b]thiophene-2-carboxylate","155.0 - 157.0","?C","429.0","K","","","","","","-","","-","","-","","-"
"CC1=CSC2=C1C(C)=C(S2)C=O","-","-","-","3,4-Dimethylthieno[2,3-b]thiophene-2-carbaldehyde","147.0 - 149.0","?C","421.0","K","","","","","","-","","-","","-","","-"
"CSC1=C(C=C)C(C)=C(S1)C(O)=O","-","-","-","3-Methyl-5-(methylthio)-4-vinylthiophene-2-carboxylic acid","172.0 - 174.0","?C","446.0","K","","","","","","-","","-","","-","","-"
"CCOC(=O)CC1SC2=CC=CC=C2NC1=O","-","-","-","Ethyl 2-(3-oxo-3,4-dihydro-2H-1,4-benzothiazin-2-yl)acetate","126.0 - 128.0","?C","400.0","K","","","","","","-","","-","","-","","-"
"COC(=O)C1=C(C)C2=C(SC=C2C)S1","-","-","-","Methyl 3,4-dimethylthieno[2,3-b]thiophene-2-carboxylate","136.0 - 139.0","?C","410.5","K","","","","","","-","","-","","-","","-"
"CN1N(C(=O)C(C=NO)=C1C)C1=CC=CC=C1","-","-","-","1,5-Dimethyl-3-oxo-2-phenyl-2,3-dihydro-1H-pyrazole-4-carbaldehyde oxime","216.0 - 219.0","?C","490.5","K","","","","","","-","","-","","-","","-"
"CCOC(=O)C1=C2CCCC(=O)C2=C(SCC=C)S1","-","-","-","Ethyl 3-(allylthio)-4-oxo-4,5,6,7-tetrahydrobenzo[c]thiophene-1-carboxylate","57.0 - 60.0","?C","331.5","K","","","","","","-","","-","","-","","-"
"CN1N=C(C=C1C(F)(F)F)C1=CC=C(S1)S(Cl)(=O)=O","-","-","-","5-[1-Methyl-5-(trifluoromethyl)-1H-pyrazol-3-yl]thiophene-2-sulfonyl chloride","83.0 - 86.0","?C","357.5","K","","","","","","-","","-","","-","","-"
"NS(=O)(=O)C1=CC=C(Br)S1","-","-","-","5-Bromothiophene-2-sulfonamide","139.0 - 141.0","?C","413.0","K","","","","","","-","","-","","-","","-"