"SMILES","CASRN","EXTERNALID","N","NAME","Melting Point","UNIT {Melting Point}","Melting Point {measured, converted}","UNIT {Melting Point}","Dataset","comment (property)","comment (chemical)","measurement method","Pressure","UNIT {Pressure}","Som set numeric condition","UNIT {Som set numeric condition}","Resp set numeric condition","UNIT {Resp set numeric condition}","Quality code","UNIT {Quality code}"
"CC(=O)N(C1=NC(CCl)=CS1)C1=CC=CC=C1","-","-","-","N-[4-(Chloromethyl)-1,3-thiazol-2-yl]-N-phenylacetamide","113.0 - 115.0","?C","387.0","K","","","","","","-","","-","","-","","-"
"CC1=NC(=C(S1)C=O)C1=CC=CC=C1","-","-","-","2-Methyl-4-phenyl-1,3-thiazole-5-carbaldehyde","72.0 - 75.0","?C","346.5","K","","","","","","-","","-","","-","","-"
"OCC1=CSC(=N1)C1=CC(Cl)=CC=C1","-","-","-","[2-(3-Chlorophenyl)-1,3-thiazol-4-yl]methanol","93.0 - 95.0","?C","367.0","K","","","","","","-","","-","","-","","-"
"OC(=O)C1=CC=C(S1)N1CCOCC1","-","-","-","5-Morpholinothiophene-2-carboxylic acid","135.0 - 137.0","?C","409.0","K","","","","","","-","","-","","-","","-"
"COC(=O)C1=CN=C(C=C1)C1=CC=CS1","-","-","-","Methyl 6-thien-2-ylnicotinate","117.0 - 118.0","?C","390.5","K","","","","","","-","","-","","-","","-"
"OC(=O)C1=C2OCCOC2=C(Br)S1","-","-","-","7-Bromo-2,3-dihydrothieno[3,4-b][1,4]dioxine-5-carboxylic acid","150.0","?C","423.0","K","","","","","","-","","-","","-","","-"
"BrC1=C2OCCOC2=C(S1)C=O","-","-","-","7-Bromo-2,3-dihydrothieno[3,4-b][1,4]dioxine-5-carbaldehyde","175.0 - 176.0","?C","448.5","K","","","","","","-","","-","","-","","-"
"BrC1=C2OCCOC2=C(S1)C#N","-","-","-","7-Bromo-2,3-dihydrothieno[3,4-b][1,4]dioxine-5-carbonitrile","149.0 - 150.0","?C","422.5","K","","","","","","-","","-","","-","","-"
"CN1C=C(C=O)C(N)=N1","-","-","-","3-Amino-1-methyl-1H-pyrazole-4-carbaldehyde","133.0 - 134.0","?C","406.5","K","","","","","","-","","-","","-","","-"
"CN1C=CC2=C1C=CC=C2C#N","-","-","-","1-Methyl-1H-indole-4-carbonitrile","41.0 - 43.0","?C","315.0","K","","","","","","-","","-","","-","","-"
"CN1N=C(C=C1CN)C1=CC=CS1","-","-","-","(1-Methyl-3-thien-2-yl-1H-pyrazol-5-yl)methylamine","77.0 - 78.0","?C","350.5","K","","","","","","-","","-","","-","","-"
"CN(C)CCOC1=C(C=CC=C1)C(O)=O","-","-","-","2-[2-(Dimethylamino)ethoxy]benzoic acid","108.0 - 109.0","?C","381.5","K","","","","","","-","","-","","-","","-"
"BrCC(=O)C1=CC2=C(NC(=O)C2)C=C1","-","-","-","5-(Bromoacetyl)-2-oxoindoline","225.0","?C","498.0","K","","","","","","-","","-","","-","","-"
"ClC(=O)C1=C(COC2=CC=CC=C2)C=CC=C1","-","-","-","2-(Phenoxymethyl)benzoyl chloride","49.0 - 51.0","?C","323.0","K","","","","","","-","","-","","-","","-"
"OCC1=C(COC2=CC=CC=C2)C=CC=C1","-","-","-","[2-(Phenoxymethyl)phenyl]methanol","50.0 - 51.0","?C","323.5","K","","","","","","-","","-","","-","","-"
"CN1CCCN(CC1)C1=CC=C(C=O)C=C1","-","-","-","4-(4-Methylperhydro-1,4-diazepin-1-yl)benzaldehyde","44.0 - 46.0","?C","318.0","K","","","","","","-","","-","","-","","-"
"CN1CCCN(CC1)C1=CC=C(CO)C=C1","-","-","-","[4-(4-Methylperhydro-1,4-diazepin-1-yl)phenyl]methanol","97.0","?C","370.0","K","","","","","","-","","-","","-","","-"
"ClC1=CC=C2C(=C1)N=CC=C2N1CCNCC1","-","-","-","7-Chloro-4-piperazinoquinoline","113.0 - 116.0","?C","387.5","K","","","","","","-","","-","","-","","-"
"OC(=O)C1CN(CCN1C(=O)OCC1C2=C(C=CC=C2)C2=C1C=CC=C2)C(=O)OCC=C","-","-","-","4-Allyl 1-(9-H-fluoren-9-ylmethyl) hydrogen piperazine-1,2,4-tricarboxylate","63.0","?C","336.0","K","","","","","","-","","-","","-","","-"
"COC(=O)C1=CN=C(Cl)N=C1","-","-","-","Methyl 2-chloropyrimidine-5-carboxylate","76.0 - 80.0","?C","351.0","K","","","","","","-","","-","","-","","-"
"CC1=NC(=C(CO)S1)C1=CC=CC=C1","-","-","-","(2-Methyl-4-phenyl-1,3-thiazol-5-yl)methanol","143.0 - 147.0","?C","418.0","K","","","","","","-","","-","","-","","-"
"ClC1=CC(N2CCCC2)=C(C#N)C(=N1)N1CCCC1","-","-","-","6-Chloro-2,4-di(1-pyrrolidinyl)nicotinonitrile","132.0 - 140.0","?C","409.0","K","","","","","","-","","-","","-","","-"
"FC1=CC=CN=C1C=O","-","-","-","3-Fluoropyridine-2-carbaldehyde","49.0 - 52.0","?C","323.5","K","","","","","","-","","-","","-","","-"
"CN1C=CC2=C1C=CC=C2S(Cl)(=O)=O","-","-","-","1-Methyl-1H-indole-4-sulfonyl chloride","94.0 - 98.0","?C","369.0","K","","","","","","-","","-","","-","","-"
"ClC1=CC=CC(=C1)C1=NC(C=O)=CS1","-","-","-","2-(3-Chlorophenyl)-1,3-thiazole-4-carbaldehyde","103.0 - 104.0","?C","376.5","K","","","","","","-","","-","","-","","-"
"CN1N=C(CCl)C=C1C1=CC=CO1","-","-","-","3-(Chloromethyl)-5-(2-furyl)-1-methyl-1H-pyrazole","72.0 - 73.0","?C","345.5","K","","","","","","-","","-","","-","","-"
"ClS(=O)(=O)C1=CC2=C(NC(=O)C2)C=C1","-","-","-","2-Oxoindoline-5-sulfonyl chloride","160.0","?C","433.0","K","","","","","","-","","-","","-","","-"
"O=CC1=CC=C(S1)N1CCOCC1","-","-","-","5-Morpholin-4-ylthiophene-2-carbaldehyde","126.0 - 128.0","?C","400.0","K","","","","","","-","","-","","-","","-"
"CC1=NC2=C(S1)C=C(I)C=C2","-","-","-","6-Iodo-2-methyl-1,3-benzothiazole","134.0 - 137.0","?C","408.5","K","","","","","","-","","-","","-","","-"
"ClC(=O)C1=C2OCCOC2=C(Br)S1","-","-","-","7-Bromo-2,3-dihydrothieno[3,4-b][1,4]dioxine-5-carbonyl chloride","154.0 - 155.0","?C","427.5","K","","","","","","-","","-","","-","","-"
"BrCC1=C(COC2=CC=CC=C2)C=CC=C1","-","-","-","1-(Bromomethyl)-2-(phenoxymethyl)benzene","53.0 - 59.0","?C","329.0","K","","","","","","-","","-","","-","","-"
"CC(=O)NC1=CC=C(C=C1)C(=O)C1CCNCC1","-","-","-","N-[4-(Piperidine-4-carbonyl)phenyl]acetamide","171.0 - 173.0","?C","445.0","K","","","","","","-","","-","","-","","-"
"CC(C)(C)OC(=O)N1CCCN(CC1)C1=CC(O)=CC=C1","-","-","-","tert-Butyl 4-(3-hydroxyphenyl)perhydro-1,4-diazepine-1-carboxylate","143.0 - 144.0","?C","416.5","K","","","","","","-","","-","","-","","-"
"CN1C=CC2=C1C=C(C=C2)C(O)=O","-","-","-","1-Methyl-1H-indole-6-carboxylic acid","197.0","?C","470.0","K","","","","","","-","","-","","-","","-"
"OCC1=CC2=C(NC=N2)C=C1","-","-","-","1H-Benzimidazol-5-ylmethanol","129.0 - 131.0","?C","403.0","K","","","","","","-","","-","","-","","-"
"OC(=O)C1=CC=CC(=C1)C1=CC=CO1","-","-","-","3-(2-Furyl)benzoic acid","157.0 - 158.0","?C","430.5","K","","","","","","-","","-","","-","","-"
"OC(=O)C1=CC=C(S1)C1=CC=CO1","-","-","-","5-(2-Furyl)thiophene-2-carboxylic acid","187.0 - 188.0","?C","460.5","K","","","","","","-","","-","","-","","-"
"[O-][N+](=O)C1=CC=CC(OC2=NC=CC=C2)=C1","-","-","-","2-(3-Nitrophenoxy)pyridine","93.0 - 95.0","?C","367.0","K","","","","","","-","","-","","-","","-"
"COC(=O)C1=CC=C(C=C1)C1=NC(C)=NO1","-","-","-","Methyl 4-(3-methyl-1,2,4-oxadiazol-5-yl)benzoate","160.0 - 163.0","?C","434.5","K","","","","","","-","","-","","-","","-"
"NC(=S)N1CCOCC1","-","-","-","Morpholine-4-carbothioamide","153.0 - 156.0","?C","427.5","K","","","","","","-","","-","","-","","-"
"OC1CCSCC1","-","-","-","Tetrahydro-2H-thiopyran-4-ol","50.0 - 51.0","?C","323.5","K","","","","","","-","","-","","-","","-"
"ClC1=CC=C2N(CC3CO3)C3=C(C=C(Cl)C=C3)C2=C1","-","-","-","3,6-Dichloro-9-(oxiran-2-ylmethyl)-9H-carbazole","143.0 - 144.0","?C","416.5","K","","","","","","-","","-","","-","","-"
"FC(F)(F)C1=CC(=CC(C=CC2=NOC(CCl)=N2)=C1)C(F)(F)F","-","-","-","5-(Chloromethyl)-3-[3,5-di(trifluoromethyl)styryl]-1,2,4-oxadiazole","105.5 - 108.0","?C","379.8","K","","","","","","-","","-","","-","","-"
"CC1=CC(=O)OC2=CC(O)=C(Cl)C=C12","-","-","-","6-Chloro-7-hydroxy-4-methyl-2H-chromen-2-one","278.0 - 280.0","?C","552.0","K","","","","","","-","","-","","-","","-"
"C[Si](C)(C1C=CC2=C1C=CC=C2)C1C=CC2=C1C=CC=C2","-","-","-","Bis(1H-inden-1-yl)dimethylsilane","85.0 - 87.0","?C","359.0","K","","","","","","-","","-","","-","","-"
"CC(=O)NC1=C(F)C=C(F)C(=C1)[N+]([O-])=O","-","-","-","N1-(2,4-Difluoro-5-nitrophenyl)acetamide","146.0 - 148.0","?C","420.0","K","","","","","","-","","-","","-","","-"
"CC(=O)C1=C(O)C=C(OCC=C)C=C1O","-","-","-","1-[4-(Allyloxy)-2,6-dihydroxyphenyl]ethan-1-one","145.0 - 146.0","?C","418.5","K","","","","","","-","","-","","-","","-"
"O=CC1=CC2=C(NC=N2)C=C1","-","-","-","1H-Benzimidazole-5-carbaldehyde","159.0 - 161.0","?C","433.0","K","","","","","","-","","-","","-","","-"
"CC1=NOC(=N1)C1=CC=CC=C1C(O)=O","-","-","-","2-(3-Methyl-1,2,4-oxadiazol-5-yl)benzoic acid","152.0 - 153.0","?C","425.5","K","","","","","","-","","-","","-","","-"
"NC1=CC=CC(OC2=NC=CC=C2)=C1","-","-","-","3-(Pyridin-2-yloxy)aniline","76.0 - 78.0","?C","350.0","K","","","","","","-","","-","","-","","-"
"OC(=O)C1=CC(=NC=C1)N1CCCCC1","-","-","-","2-Piperidinoisonicotinic acid","167.0 - 168.0","?C","440.5","K","","","","","","-","","-","","-","","-"
"CC1=NC2=C(S1)C=C(C=C2)S(Cl)(=O)=O","-","-","-","2-Methyl-1,3-benzothiazole-6-sulfonyl chloride","98.0 - 101.0","?C","372.5","K","","","","","","-","","-","","-","","-"
"CC(=NO)C1=CC2=C(CCCC2)C=C1","-","-","-","(1E)-1-(5,6,7,8-Tetrahydronaphthalen-2-yl)ethanone oxime","104.0 - 106.0","?C","378.0","K","","","","","","-","","-","","-","","-"
"IC1=C(CN2C=NC=N2)C=CC=C1","-","-","-","1-(2-Iodobenzyl)-1H-1,2,4-triazole","67.0 - 69.0","?C","341.0","K","","","","","","-","","-","","-","","-"
"ClC(=O)C1=CC=C(S1)C1=CC=CO1","-","-","-","5-(2-Furyl)thiophene-2-carbonyl chloride","83.0","?C","356.0","K","","","","","","-","","-","","-","","-"
"BrC1=CC=CC(OC2=NC=CC=C2)=C1","-","-","-","2-(3-Bromophenoxy)pyridine","63.0 - 64.0","?C","336.5","K","","","","","","-","","-","","-","","-"
"CC(C)(C)OC(=O)N1CCN(CC1)C1=NC=CC(=C1)C#N","-","-","-","tert-Butyl 4-(4-cyanopyrid-2-yl)piperazine-1-carboxylate","127.0 - 129.0","?C","401.0","K","","","","","","-","","-","","-","","-"
"CC1=NOC(=N1)C1=CC=C(C=C1)C(O)=O","-","-","-","4-(3-Methyl-1,2,4-oxadiazol-5-yl)benzoic acid","267.0 - 269.0","?C","541.0","K","","","","","","-","","-","","-","","-"
"CC1=NOC(=N1)C1=CC=C(C=C1)C(Cl)=O","-","-","-","4-(3-Methyl-1,2,4-oxadiazol-5-yl)benzoyl chloride","115.0 - 117.0","?C","389.0","K","","","","","","-","","-","","-","","-"
"BrC1=C(COC2=CC=CC=C2)C=CC=C1","-","-","-","1-Bromo-2-(phenoxymethyl)benzene","41.0 - 42.0","?C","314.5","K","","","","","","-","","-","","-","","-"
"OC(=O)C1=CC(C=O)=CC=C1F","-","-","-","2-Fluoro-5-formylbenzoic acid","175.0 - 178.0","?C","449.5","K","","","","","","-","","-","","-","","-"
"CC(=O)C1=CC(C(C)=O)=C(N)C(CC=C)=C1O","-","-","-","1-(5-Acetyl-3-allyl-2-amino-4-hydroxyphenyl)ethan-1-one","99.5 - 101.5","?C","373.5","K","","","","","","-","","-","","-","","-"
"CC1=CC(=CC=C1O)C1(CCCCC1)C1=CC(C)=C(O)C=C1","-","-","-","4-[1-(4-Hydroxy-3-methylphenyl)cyclohexyl]-2-methylphenol","184.0 - 185.0","?C","457.5","K","","","","","","-","","-","","-","","-"
"CC1=NOC(=N1)C1=CC=C(CO)C=C1","-","-","-","[4-(3-Methyl-1,2,4-oxadiazol-5-yl)phenyl]methanol","102.0 - 104.0","?C","376.0","K","","","","","","-","","-","","-","","-"
"OC(=O)C1=CC=C(C=C1)C1=NC=CS1","-","-","-","4-(1,3-Thiazol-2-yl)benzoic acid","239.0 - 241.0","?C","513.0","K","","","","","","-","","-","","-","","-"
"O=CC1=CC=C(C=C1)C1=NC=CS1","-","-","-","4-(1,3-Thiazol-2-yl)benzaldehyde","90.0 - 91.0","?C","363.5","K","","","","","","-","","-","","-","","-"
"OC(=O)C1=CC=CC(OC2=NC=CC=C2)=C1","-","-","-","3-(Pyrid-2-yloxy)benzoic acid","108.0 - 112.0","?C","383.0","K","","","","","","-","","-","","-","","-"
"CC(C)(C)OC(=O)N1CCN(CC1)C1=NC=CC(=C1)C(O)=O","-","-","-","2-[4-(tert-Butoxycarbonyl)piperazin-1-yl]isonicotinic acid","174.0 - 176.0","?C","448.0","K","","","","","","-","","-","","-","","-"
"NC1=CC=C(CN2CCCC2)C=C1","-","-","-","4-(Pyrrolidin-1-ylmethyl)aniline","46.0 - 48.0","?C","320.0","K","","","","","","-","","-","","-","","-"
"FC(F)(F)C1=CC(C#N)=C(C=C1)N1CCOCC1","-","-","-","2-Morpholino-5-(trifluoromethyl)benzonitrile","53.0 - 55.0","?C","327.0","K","","","","","","-","","-","","-","","-"
"NC1=C(COC2=CC=CC=C2)C=CC=C1","-","-","-","2-(Phenoxymethyl)aniline","78.0","?C","351.0","K","","","","","","-","","-","","-","","-"
"CC1=CN=CC(=N1)N1CCC(CC1)C(O)=O","-","-","-","1-(6-Methylpyrazin-2-yl)piperidine-4-carboxylic acid","151.0 - 152.0","?C","424.5","K","","","","","","-","","-","","-","","-"
"BrC1=CC=CC(COC2=CC=CC=C2)=C1","-","-","-","1-Bromo-3-(phenoxymethyl)benzene","38.0 - 39.0","?C","311.5","K","","","","","","-","","-","","-","","-"
"NC1=CC=CC(COC2=CC=CC=C2)=C1","-","-","-","3-(Phenoxymethyl)aniline","45.0 - 47.0","?C","319.0","K","","","","","","-","","-","","-","","-"
"CC1=NC(CC(O)=O)=CS1","-","-","-","2-(2-Methyl-1,3-thiazol-4-yl)acetic acid","124.0 - 125.0","?C","397.5","K","","","","","","-","","-","","-","","-"
"COC1=CC(Cl)=C(NC(C)=O)C(Cl)=C1","-","-","-","N-(2,6-Dichloro-4-methoxyphenyl)acetamide","186.0 - 188.0","?C","460.0","K","","","","","","-","","-","","-","","-"
"O=S(=O)(N1C=CC2=C1C=CC=C2)C1=CC=CC=C1","-","-","-","1-(Phenylsulfonyl)indole","78.0 - 80.0","?C","352.0","K","","","","","","-","","-","","-","","-"
"OC(=O)C1=NC=CC=C1N1CCCCC1","-","-","-","3-Piperidinopyridine-2-carboxylic acid","102.0 - 109.0","?C","378.5","K","","","","","","-","","-","","-","","-"
"O=CC1=CC=CC=C1OC1=NC=CC=C1","-","-","-","2-(Pyrid-2-yloxy)benzaldehyde","51.0 - 52.0","?C","324.5","K","","","","","","-","","-","","-","","-"
"ClN1C(=O)C2=CC=CC=C2C1=O","-","-","-","N-CHLOROPHTHALIMIDE","185.0 - 189.0","?C","460.0","K","","","","","","-","","-","","-","","-"
"CC(C)CCCC(C)C1CCC2C3CCC4CC(=O)CCC4(C)C3CCC12C","-","-","-","5alpha-Cholestan-3-one","128.0 - 133.0","?C","403.5","K","","","","","","-","","-","","-","","-"
"CC(=O)OCC1OC(S)C(OC(C)=O)C(OC(C)=O)C1OC(C)=O","-","-","-","beta-D-Thioglucose tetraacetate","114.0 - 119.0","?C","389.5","K","","","","","","-","","-","","-","","-"
"CC(=C)C1CCC(=CC1)C(O)=O","-","-","-","L(-)-Perillic acid","129.0 - 135.0","?C","405.0","K","","","","","","-","","-","","-","","-"
"NC1=NC2=C(N=CN2C2OC(CO)C(O)C2O)C(S)=N1","-","-","-","2-Amino-6-mercaptopurine-9-D-riboside hydrate","230.0 - 231.0","?C","503.5","K","","","","","","-","","-","","-","","-"
"OC(=O)C1=C(CN2C=NC=N2)C=CC=C1","-","-","-","2-(1H-1,2,4-Triazol-1-ylmethyl)benzoic acid","206.0 - 207.0","?C","479.5","K","","","","","","-","","-","","-","","-"
"NC1=C(CN2C=NC=N2)C=CC=C1","-","-","-","2-(1H-1,2,4-Triazol-1-ylmethyl)aniline","56.0 - 57.0","?C","329.5","K","","","","","","-","","-","","-","","-"
"CC1=NOC(=N1)C1=CC=C(C=O)C=C1","-","-","-","4-(3-Methyl-1,2,4-oxadiazol-5-yl)benzaldehyde","133.0 - 135.0","?C","407.0","K","","","","","","-","","-","","-","","-"
"FC(F)(F)C1=CC(Br)=C(C=C1)N1CCOCC1","-","-","-","4-[2-Bromo-4-(trifluoromethyl)phenyl]morpholine","50.0 - 52.0","?C","324.0","K","","","","","","-","","-","","-","","-"
"CC1=CN=CC(=N1)N1CCC(CO)CC1","-","-","-","[1-(6-Methylpyrazin-2-yl)piperid-4-yl]methanol","103.0 - 107.0","?C","378.0","K","","","","","","-","","-","","-","","-"
"CN1C=C(Br)C(=N1)C(O)=O","-","-","-","4-Bromo-1-methyl-1H-pyrazole-3-carboxylic acid","211.0 - 213.0","?C","485.0","K","","","","","","-","","-","","-","","-"
"CC(C)(C)OC(=O)NCC(N)=S","-","-","-","tert-Butyl 2-amino-2-thioxoethylcarbamate","129.0 - 131.0","?C","403.0","K","","","","","","-","","-","","-","","-"
"NC1=C(C=NC(Br)=N1)C#N","-","-","-","4-Amino-2-bromopyrimidine-5-carbonitrile","250.0","?C","523.0","K","","","","","","-","","-","","-","","-"
"NC1=C(Br)C=C(Cl)C=C1F","-","-","-","2-bromo-4-chloro-6-fluoroaniline","41.0 - 43.0","?C","315.0","K","","","","","","-","","-","","-","","-"
"CCCC1=C(O)C=CC(C(C)=O)=C1N","-","-","-","1-(2-Amino-4-hydroxy-3-propylphenyl)ethan-1-one","95.0 - 97.0","?C","369.0","K","","","","","","-","","-","","-","","-"
"CN1C=NC(=C1)C(=O)OC1=C(F)C(F)=C(F)C(F)=C1F","-","-","-","Pentafluorophenyl 1-methyl-1H-imidazole-4-carboxylate","131.0 - 132.0","?C","404.5","K","","","","","","-","","-","","-","","-"
"OCC1=C(CN2C=NC=N2)C=CC=C1","-","-","-","[2-(1H-1,2,4-Triazol-1-ylmethyl)phenyl]methanol","98.0 - 100.0","?C","372.0","K","","","","","","-","","-","","-","","-"
"O=CC1=CC=CC(OC2=NC=CC=C2)=C1","-","-","-","3-(Pyrid-2-yloxy)benzaldehyde","115.0 - 116.0","?C","388.5","K","","","","","","-","","-","","-","","-"
"OCC1=CC=CC(OC2=NC=CC=C2)=C1","-","-","-","[3-(Pyrid-2-yloxy)phenyl]methanol","57.0 - 59.0","?C","331.0","K","","","","","","-","","-","","-","","-"
"CNCC1=CC=C(S1)N1CCOCC1","-","-","-","N-Methyl-N-[(5-morpholin-4-ylthien-2-yl)methyl]amine","38.0 - 39.0","?C","311.5","K","","","","","","-","","-","","-","","-"
"OCC1=CN=C(C=C1)C1=CC=CS1","-","-","-","(6-Thien-2-ylpyrid-3-yl)methanol","124.0 - 125.0","?C","397.5","K","","","","","","-","","-","","-","","-"
"NC1=CN=C(C=C1)C1=CC=CS1","-","-","-","6-Thien-2-ylpyrid-3-ylamine","144.0 - 145.0","?C","417.5","K","","","","","","-","","-","","-","","-"
"OC(=O)C1=CC=CC(COC2=CC=CC=C2)=C1","-","-","-","3-(Phenoxymethyl)benzoic acid","118.0 - 119.0","?C","391.5","K","","","","","","-","","-","","-","","-"
"CC(=O)C1=C(N)C=C(S1)C1=CC=CC=C1","-","-","-","1-(3-amino-5-phenyl-2-thienyl)ethan-1-one","135.0 - 137.0","?C","409.0","K","","","","","","-","","-","","-","","-"
"OC1=CC(C=O)=C(I)C=C1","-","-","-","5-Hydroxy-2-iodobenzaldehyde","125.0 - 126.0","?C","398.5","K","","","","","","-","","-","","-","","-"
"FC1=C(F)C(F)=C(OC(=O)C2=CSC(=N2)C2=CC=CN=C2)C(F)=C1F","-","-","-","Pentafluorophenyl 2-pyrid-3-yl-1,3-thiazole-4-carboxylate","136.0 - 137.0","?C","409.5","K","","","","","","-","","-","","-","","-"
"FC1=C(F)C(F)=C(OC(=O)C2=CC=C(C=C2)C2=CN=CO2)C(F)=C1F","-","-","-","Pentafluorophenyl 4-(1,3-oxazol-5-yl)benzoate","141.0 - 143.0","?C","415.0","K","","","","","","-","","-","","-","","-"
"ClCC1=C(CN2C=NC=N2)C=CC=C1","-","-","-","1-[2-(Chloromethyl)benzyl]-1H-1,2,4-triazole","52.0 - 57.0","?C","327.5","K","","","","","","-","","-","","-","","-"
"N#CC1=C(OC2CCOCC2)C=CC=C1","-","-","-","2-(Tetrahydropyran-4-yloxy)benzonitrile","51.0 - 55.0","?C","326.0","K","","","","","","-","","-","","-","","-"
"OCC1=C(C=CC(=C1)C(F)(F)F)N1CCOCC1","-","-","-","[2-Morpholino-5-(trifluoromethyl)phenyl]methanol","83.0 - 84.0","?C","356.5","K","","","","","","-","","-","","-","","-"
"CC1=CN=CC(=N1)N1CCC(CC1)C(=O)OC1=C(F)C(F)=C(F)C(F)=C1F","-","-","-","Pentafluorophenyl 1-(6-methylpyrazin-2-yl)piperidine-4-carboxylate","94.0 - 95.0","?C","367.5","K","","","","","","-","","-","","-","","-"
"OCC1=CC=CC(COC2=CC=CC=C2)=C1","-","-","-","[3-(Phenoxymethyl)phenyl]methanol","58.0 - 60.0","?C","332.0","K","","","","","","-","","-","","-","","-"
"COC1=CC(OC)=C(C=C1)C(=O)CCCCl","-","-","-","4-chloro-1-(2,4-dimethoxyphenyl)butan-1-one","58.0 - 60.0","?C","332.0","K","","","","","","-","","-","","-","","-"
"COC1=CC(Cl)=C(OC)C=C1[N+]([O-])=O","-","-","-","1-Chloro-2,5-dimethoxy-4-nitrobenzene","144.0 - 145.0","?C","417.5","K","","","","","","-","","-","","-","","-"
"CC1=C(C)C(C)=C(C)C1[Si](C)(C)C1C(C)=C(C)C(C)=C1C","-","-","-","Bis(2,3,4,5-tetramethyl-2,4-cyclopentadiene-1-yl)dimethylsilane","65.0 - 68.0","?C","339.5","K","","","","","","-","","-","","-","","-"
"CN1C=C(Br)C(=N1)C(Cl)=O","-","-","-","4-Bromo-1-methyl-1H-pyrazole-3-carbonyl chloride","131.0 - 133.0","?C","405.0","K","","","","","","-","","-","","-","","-"
"O=CC1=CC(=CC=C1)C1=NC=CS1","-","-","-","3-(1,3-Thiazol-2-yl)benzaldehyde","67.0 - 68.0","?C","340.5","K","","","","","","-","","-","","-","","-"
"O=C=NC1=CC=CC(COC2=CC=CC=C2)=C1","-","-","-","1-Isocyanato-3-(phenoxymethyl)benzene","51.0 - 53.0","?C","325.0","K","","","","","","-","","-","","-","","-"
"OCC1=NC=C(Br)C=C1","-","-","-","(5-Bromopyrid-2-yl)methanol","59.0 - 60.0","?C","332.5","K","","","","","","-","","-","","-","","-"
"CCOC(=O)C(C#N)C1C2=CC(Br)=CC=C2OC(N)=C1C(=O)OCC","-","-","-","Ethyl 2-amino-6-bromo-4-(1-cyano-2-ethoxy-2-oxoethyl)-4H-chromene-3-carboxylate","105.0 - 108.0","?C","379.5","K","","","","","","-","","-","","-","","-"
"CNCC1=C(CN2C=NC=N2)C=CC=C1","-","-","-","N-Methyl-2-(1H-1,2,4-triazol-1-ylmethyl)benzylamine","57.0 - 59.0","?C","331.0","K","","","","","","-","","-","","-","","-"
"CCOC(=O)C1CCN(CC1)C1=NC=CC(=C1)C#N","-","-","-","Ethyl 1-(4-cyanopyrid-2-yl)piperidine-4-carboxylate","51.0 - 53.0","?C","325.0","K","","","","","","-","","-","","-","","-"
"COC(=O)C1=CC=CN=C1N","-","-","-","Methyl 2-aminonicotinate","84.0 - 86.0","?C","358.0","K","","","","","","-","","-","","-","","-"