"SMILES","CASRN","EXTERNALID","N","NAME","Melting Point","UNIT {Melting Point}","Melting Point {measured, converted}","UNIT {Melting Point}","Dataset","comment (property)","comment (chemical)","measurement method","Pressure","UNIT {Pressure}","Som set numeric condition","UNIT {Som set numeric condition}","Resp set numeric condition","UNIT {Resp set numeric condition}","Quality code","UNIT {Quality code}"
"CC1OC(O)C(O)C(O)C1O","-","-","-","D(+)-Fucose","144.0 - 145.0","?C","417.5","K","","","","","","-","","-","","-","","-"
"CC(=O)C1CCC2C3CCC4=CC(=O)CCC4(C)C3CCC12C","-","-","-","progesterone","128.0 - 132.0","?C","403.0","K","","","","","","-","","-","","-","","-"
"OC(=O)CC1NC(=O)NC1=O","-","-","-","5-Hydantoin acetic acid","213.0 - 216.0","?C","487.5","K","","","","","","-","","-","","-","","-"
"CC(NC(=O)OCC1=CC=CC=C1)C(O)=O","-","-","-","N-Carbobenzyloxy-DL-alanine","112.0 - 113.0","?C","385.5","K","","","","","","-","","-","","-","","-"
"CC12CCC3C(CC=C4CC(O)CCC34C)C1CCC2O","-","-","-","5-Androstene-3beta,17beta-diol hydrate","178.0 - 182.0","?C","453.0","K","","","","","","-","","-","","-","","-"
"CC(=O)OCC1OC(C(OC(C)=O)C1OC(C)=O)N1C=NC2=C1N=C(N)NC2=O","-","-","-","2',3',5'-Triacetylguanosine","224.0 - 233.0","?C","501.5","K","","","","","","-","","-","","-","","-"
"OC(=O)C(CC1=CC=C(O)C=C1)NC(=O)CCl","-","-","-","N-(2-Chloroacetyl)-L-tyrosine","153.0 - 154.0","?C","426.5","K","","","","","","-","","-","","-","","-"
"NC1=NC=NC2=C1N=CN2C1OC2COP(O)(=O)OC2C1O","-","-","-","Adenosine 3'-,5'-cyclic monophosphate","260.0","?C","533.0","K","","","","","","-","","-","","-","","-"
"CS(=O)CCC(N)C(O)=O","-","-","-","DL-Methionine sulfoxide","232.0 - 234.0","?C","506.0","K","","","","","","-","","-","","-","","-"
"NC(CC1=CC=C(C=C1)[N+]([O-])=O)C(O)=O","-","-","-","4-Nitro-DL-phenylalanine hydrate","236.0 - 237.0","?C","509.5","K","","","","","","-","","-","","-","","-"
"OCC1OC(OCC2OC(O)(CO)C(O)C2O)C(O)C(O)C1O","-","-","-","Palatinose hydrate","125.0 - 128.0","?C","399.5","K","","","","","","-","","-","","-","","-"
"NCC(=O)NC(CCC(O)=O)C(O)=O","-","-","-","Glycyl-L-glutamic acid","155.0 - 158.0","?C","429.5","K","","","","","","-","","-","","-","","-"
"CCCCC(N)C(O)=O","-","-","-","L(+)-Norleucine","300.0","?C","573.0","K","","","","","","-","","-","","-","","-"
"OCC1OC(OC2=C(C=O)C=CC=C2)C(O)C(O)C1O","-","-","-","Helicin","178.0","?C","451.0","K","","","","","","-","","-","","-","","-"
"NC(CC1=CC=C(O)C(=C1)[N+]([O-])=O)C(O)=O","-","-","-","3-Nitro-L-tyrosine","233.0 - 235.0","?C","507.0","K","","","","","","-","","-","","-","","-"
"NC1=NC=NC2=C1N=CN2C1CC(O)C(COP(O)(O)=O)O1","-","-","-","2'-Deoxyadenosine-5'-monophosphoric acid hydrate","148.0","?C","421.0","K","","","","","","-","","-","","-","","-"
"OCC1OC(CC1O)N1C=NC2=C1N=CNC2=O","-","-","-","2'-Deoxyinosine","250.0","?C","523.0","K","","","","","","-","","-","","-","","-"
"CC(=O)OCC1OC(CC1OC(C)=O)N1C=C(I)C(=O)NC1=O","-","-","-","3',5'-Diacetyl-5-iodo-2'-deoxyuridine","161.0 - 163.0","?C","435.0","K","","","","","","-","","-","","-","","-"
"NC1=NC2=C(N=CN2C2OC(CO)C(O)C2O)C(Cl)=N1","-","-","-","2-Amino-6-chloropurine-9-riboside","166.0 - 167.0","?C","439.5","K","","","","","","-","","-","","-","","-"
"OCC1OC(C(O)C1O)N1C=NC2=C1N=CN=C2NCC1=CC=CC=C1","-","-","-","6-Benzylaminopurine riboside","184.0 - 186.0","?C","458.0","K","","","","","","-","","-","","-","","-"
"OCC1OC(C(O)C1O)N1C=NC2=C1N=CN=C2Cl","-","-","-","(2R,3R,4S,5R)-2-(6-chloro-9H-purin-9-yl)-5-(hydroxymethyl)tetrahydrofuran-3,4-diol","161.0 - 163.0","?C","435.0","K","","","","","","-","","-","","-","","-"
"C(NC1=NC=NC2=C1N=CN2)C1=CC=CO1","-","-","-","Kinetin","269.0 - 271.0","?C","543.0","K","","","","","","-","","-","","-","","-"
"OCC1OC(C(O)C1O)N1C=NC2=C1N=CN=C2NCC1=CC=CO1","-","-","-","Kinetin-9-riboside","152.0 - 154.0","?C","426.0","K","","","","","","-","","-","","-","","-"
"OCC1OC(C(O)C1O)N1C=NC2=C1N=CN=C2S","-","-","-","6-Mercaptopurine-9-D-riboside","218.0 - 221.0","?C","492.5","K","","","","","","-","","-","","-","","-"
"CC1=NC=NC2=C1N=CN2","-","-","-","6-Methylpurine","235.0 - 240.0","?C","510.5","K","","","","","","-","","-","","-","","-"
"[O-][N+](=O)C1=CNC(=O)NC1=O","-","-","-","5-Nitrouracil","300.0","?C","573.0","K","","","","","","-","","-","","-","","-"
"CC(OC1C(O)C(CO)OC(O)C1NC(C)=O)C(O)=O","-","-","-","N-acetylmuramic acid","125.0","?C","398.0","K","","","","","","-","","-","","-","","-"
"NC1=NC(=O)NC=N1","-","-","-","5-Azacytosine","300.0","?C","573.0","K","","","","","","-","","-","","-","","-"
"NC1=CNC(=O)NC1=O","-","-","-","5-Aminouracil","300.0","?C","573.0","K","","","","","","-","","-","","-","","-"
"CC(C)CC(N)C(O)=O","-","-","-","D-LEUCINE","300.0","?C","573.0","K","","","","","","-","","-","","-","","-"
"CSCC(N)C(O)=O","-","-","-","S-Methyl-L-cysteine","240.0","?C","513.0","K","","","","","","-","","-","","-","","-"
"CC(=O)NC1C(O)CC(O)(OC1C(O)C(O)CO)C(O)=O","-","-","-","N-acetylneuraminic acid","184.0 - 186.0","?C","458.0","K","","","","","","-","","-","","-","","-"
"CC(=O)NC(CC1=CNC2=C1C=CC=C2)C(O)=O","-","-","-","N-acetyl-DL-tryptophan","204.0 - 206.0","?C","478.0","K","","","","","","-","","-","","-","","-"
"NC(CC1=CC=C(OCC2=CC=CC=C2)C=C1)C(O)=O","-","-","-","O-Benzyl-L-tyrosine","259.0","?C","532.0","K","","","","","","-","","-","","-","","-"
"CC(C)C(N)C(O)=O","-","-","-","D-Valine","302.0 - 303.0","?C","575.5","K","","","","","","-","","-","","-","","-"
"OCC1OC(OC2=CC3=C(C=C2)C=C(Br)C=C3)C(O)C(O)C1O","-","-","-","6-Bromo-2-naphthyl-beta-D-galactopyranoside","218.0 - 220.0","?C","492.0","K","","","","","","-","","-","","-","","-"
"CCOC(=O)C(CC1=CC=C(O)C=C1)NC(=O)C1=CC=CC=C1","-","-","-","N-Benzoyl-L-tyrosine ethylester","118.0 - 121.0","?C","392.5","K","","","","","","-","","-","","-","","-"
"CC(NC(=O)C(C)NC(=O)C(C)NC(C)=O)C(O)=O","-","-","-","N-Acetyl-L-alanyl-L-alanyl-L-alanine","248.0","?C","521.0","K","","","","","","-","","-","","-","","-"
"CC(=O)NC(CCCCN)C(O)=O","-","-","-","Nalpha-Acetyl-L-lysine","256.0 - 258.0","?C","530.0","K","","","","","","-","","-","","-","","-"
"CC(=O)NC(CC1=CC=CC=C1)C(=O)NC(CC1=CC(I)=C(O)C(I)=C1)C(O)=O","-","-","-","N-Acetyl-L-phenylalanyl-3,5-diiodo-L-tyrosine","219.0 - 221.0","?C","493.0","K","","","","","","-","","-","","-","","-"
"CC(N)C(=O)NC(C)C(O)=O","-","-","-","L-Alanyl-L-alanine","286.0 - 288.0","?C","560.0","K","","","","","","-","","-","","-","","-"
"NC(CC1=CC=C(Br)C=C1)C(O)=O","-","-","-","4-Bromo-dl-phenylalanine","262.0 - 263.0","?C","535.5","K","","","","","","-","","-","","-","","-"
"CC1=CC=C(C=C1)S(=O)(=O)NC(CC1=CC=CC=C1)C(=O)CCl","-","-","-","L-1-4'-Tosylamino-2-phenylethyl chloromethyl ketone","105.0 - 109.0","?C","380.0","K","","","","","","-","","-","","-","","-"
"OCC1OC(=O)C(O)C1O","-","-","-","D(+)-Ribonic acid gamma-lactone","83.0 - 85.0","?C","357.0","K","","","","","","-","","-","","-","","-"
"NC(=O)CNCCS(O)(=O)=O","-","-","-","ACES","270.0 - 295.0","?C","555.5","K","","","","","","-","","-","","-","","-"
"NC(=O)CN(CC(O)=O)CC(O)=O","-","-","-","Carbamoylmethylaminodiacetic acid","219.0","?C","492.0","K","","","","","","-","","-","","-","","-"
"NCC1CCC(CC1)C(O)=O","-","-","-","trans-4-(Aminomethyl)cyclohexanecarboxylic acid","300.0","?C","573.0","K","","","","","","-","","-","","-","","-"
"CC1C2C(CC3=CC=CC=C3)NC(=O)C22OC(=O)C=CC(O)CCCC(C)CC=CC2C(O)C1=C","-","-","-","CYTOCHALASIN B","218.0 - 223.0","?C","493.5","K","","","","","","-","","-","","-","","-"
"CC1C2C(CC3=CC=CC=C3)NC(=O)C22OC(=O)C=CC(=O)CCCC(C)CC=CC2C(O)C1=C","-","-","-","cytochalasin a","193.0 - 195.0","?C","467.0","K","","","","","","-","","-","","-","","-"
"CC1C2C(CC3=CC=CC=C3)NC(=O)C22OC(=O)OC=CC(C)(O)C(=O)C(C)CC=CC2C2OC12C","-","-","-","cytochalasin e","206.0","?C","479.0","K","","","","","","-","","-","","-","","-"
"O=C1NC=NC=C1","-","-","-","4(3h)-pyrimidone","163.0 - 168.0","?C","438.5","K","","","","","","-","","-","","-","","-"
"COC(=O)CCC(N)C(O)=O","-","-","-","L-Glutamic acid 5-methyl ester","182.0","?C","455.0","K","","","","","","-","","-","","-","","-"
"OS(=O)(=O)C1=CC=CC2=C1C=CC=C2NCCNC(=O)CI","-","-","-","N-Iodoacetyl-N'-(5-sulfo-1-naphthyl)ethylenediamine","300.0","?C","573.0","K","","","","","","-","","-","","-","","-"
"NC(CC1=CC=C(N)C=C1)C(O)=O","-","-","-","4-Amino-DL-phenylalanine hydrate","255.0 - 258.0","?C","529.5","K","","","","","","-","","-","","-","","-"
"CCOC(=O)C(CC1=CC=C(O)C=C1)NC(=O)CN","-","-","-","N-Glycyl-L-tyrosine hydrate","230.0","?C","503.0","K","","","","","","-","","-","","-","","-"
"O=C(COC1=CC=C2C=CC=CC2=C1)ON1C(=O)CCC1=O","-","-","-","(2-Naphthoxy)acetic acid N-hydroxysuccinimide ester","150.0 - 152.0","?C","424.0","K","","","","","","-","","-","","-","","-"
"COC(=O)C(C)NC(=O)C1=CC=CC=C1","-","-","-","N-Benzoyl-L-alanine methyl ester","61.0 - 63.0","?C","335.0","K","","","","","","-","","-","","-","","-"
"OCC1OC(OC2=CNC3=C2C(Cl)=C(Br)C=C3)C(O)C(O)C1O","-","-","-","5-Bromo-4-chloro-3-indolyl-beta-D-glucoside","249.0 - 251.0","?C","523.0","K","","","","","","-","","-","","-","","-"
"OC(=O)CCC(NC(=O)OCC1=CC=CC=C1)C(O)=O","-","-","-","N-Benzyloxycarbonyl-L-glutamic acid","118.0 - 121.0","?C","392.5","K","","","","","","-","","-","","-","","-"
"NC(CCC(=O)NC(CCC(O)=O)C(O)=O)C(O)=O","-","-","-","gamma-L-Glutamyl-L-glutamic acid","179.0 - 182.0","?C","453.5","K","","","","","","-","","-","","-","","-"
"CN1CC(=O)NC1=N","-","-","-","creatinine","255.0","?C","528.0","K","","","","","","-","","-","","-","","-"
"CC(=O)NC1C(OC(C)=O)OC(COC(C)=O)C(OC(C)=O)C1OC(C)=O","-","-","-","2-Acetamido-2-deoxy-1,3,4,6-tetra-O-acetyl-beta-D-glucopyranose","186.0 - 189.0","?C","460.5","K","","","","","","-","","-","","-","","-"
"NCC(=O)NCC(=O)NCC(=O)NCC(O)=O","-","-","-","Glycylglycylglycylglycine","300.0","?C","573.0","K","","","","","","-","","-","","-","","-"
"OC1=CC=C(CCC(=O)ON2C(=O)CCC2=O)C=C1","-","-","-","3-(4-Hydroxyphenyl)propionic acid N-hydroxysuccinimide ester","133.0 - 135.0","?C","407.0","K","","","","","","-","","-","","-","","-"
"CNC(C)(C)C(O)=O","-","-","-","2-(methylamino)isobutyric acid","300.0","?C","573.0","K","","","","","","-","","-","","-","","-"
"OCC1OC(SC2=C(C=CC=C2)[N+]([O-])=O)C(O)C(O)C1O","-","-","-","2-Nitrophenyl-beta-D-thiogalactopyranoside","196.0 - 203.0","?C","472.5","K","","","","","","-","","-","","-","","-"
"CC(=O)NC1C(O)C(O)C(CO)OC1OC1=C(C=CC=C1)[N+]([O-])=O","-","-","-","2'-Nitrophenyl-2-acetamido-2-deoxy-alpha-D-glucopyranoside","204.0 - 208.0","?C","479.0","K","","","","","","-","","-","","-","","-"
"CC(=O)NC1C(O)C(O)C(CO)OC1OC1=CC=C(C=C1)[N+]([O-])=O","-","-","-","4'-Nitrophenyl-2-acetamido-2-deoxy-alpha-D-glucopyranoside","264.0","?C","537.0","K","","","","","","-","","-","","-","","-"
"ClCC(=O)C(CC1=CC=CC=C1)NC(=O)OCC1=CC=CC=C1","-","-","-","N-Carbobenzyloxy-L-phenylalanyl chloromethyl ketone","107.0 - 108.0","?C","380.5","K","","","","","","-","","-","","-","","-"
"CC1=CC2=C(O1)C(C)=C1OC(=O)C=C(C)C1=C2","-","-","-","4,5',8-Trimethylpsoralen","230.0 - 234.0","?C","505.0","K","","","","","","-","","-","","-","","-"
"CC1C2C(CC3=CC=CC=C3)NC(=O)C22OC(=O)CCC(O)CCCC(C)CC=CC2C(O)C1=C","-","-","-","dihydrocytochalasin B","203.0 - 205.0","?C","477.0","K","","","","","","-","","-","","-","","-"
"OCC1OC(C(O)C1O)N1C=NC2=C1N=CN=C2SCC1=CC=C(C=C1)[N+]([O-])=O","-","-","-","S-(4-Nitrobenzyl)-6-thioinosine","194.0 - 196.0","?C","468.0","K","","","","","","-","","-","","-","","-"
"NC1=NC2=C(N=CN2C2OC(CO)C(O)C2O)C(SCC2=CC=C(C=C2)[N+]([O-])=O)=N1","-","-","-","S-(4-Nitrobenzyl)-6-thioguanosine","203.0 - 205.0","?C","477.0","K","","","","","","-","","-","","-","","-"
"CC(NC(CCCNC(N)=N)C(O)=O)C(O)=O","-","-","-","(+)-Octopine","283.0 - 284.0","?C","556.5","K","","","","","","-","","-","","-","","-"
"CCCCCCCCOC1OC(CO)C(O)C(O)C1O","-","-","-","1-O-n-Octyl-beta-D-glucopyranoside","105.0","?C","378.0","K","","","","","","-","","-","","-","","-"
"OC1=C(C#N)C(C#N)=C(O)C=C1","-","-","-","2,3-Dicyanohydroquinone","245.0","?C","518.0","K","","","","","","-","","-","","-","","-"
"CCCCC(O)C(O)CO","-","-","-","1,2,3-Heptanetriol","92.0 - 97.0","?C","367.5","K","","","","","","-","","-","","-","","-"
"O=C(CCCC1=CC=CC=C1)C1=CC=CC=C1","-","-","-","1,4-Diphenyl-1-butanone","55.0 - 59.0","?C","330.0","K","","","","","","-","","-","","-","","-"
"NC1=C(C=C(F)C=C1)[N+]([O-])=O","-","-","-","4-Fluoro-2-nitroaniline","96.0 - 100.0","?C","371.0","K","","","","","","-","","-","","-","","-"
"OCC1C(O)CC2OC(=O)CC12","-","-","-","(-)-6beta-Hydroxymethyl-7alpha-hydroxy-cis-2-oxabicyclo[3.3.0]octan-3-one","114.0 - 118.0","?C","389.0","K","","","","","","-","","-","","-","","-"
"OCC1C(CC2OC(=O)CC12)OC(=O)C1=CC=CC=C1","-","-","-","(-)-Corey lactone benzoate","116.0 - 120.0","?C","391.0","K","","","","","","-","","-","","-","","-"
"O=C(OC1CC2OC(=O)CC2C1COC(C1=CC=CC=C1)(C1=CC=CC=C1)C1=CC=CC=C1)C1=CC=CC=C1","-","-","-","(-)-3-Oxo-6-beta-trityloxymethyl-7-alpha-benzoyl-oxy-2-oxabicyclo[3.3.0]octane","183.0 - 185.0","?C","457.0","K","","","","","","-","","-","","-","","-"
"CCCCCCCCCCCC(=O)OC1OC(CO)C(OC2OC(CO)C(O)C(O)C2O)C(O)C1O","-","-","-","1-Oxododecyl-beta-D-maltoside","193.0 - 197.0","?C","468.0","K","","","","","","-","","-","","-","","-"
"OC1(CCNCC1)C1=CC(=C(Cl)C=C1)C(F)(F)F","-","-","-","4-[4-Chloro-3-(trifluoromethyl)phenyl]-4-piperidinol","135.0 - 140.0","?C","410.5","K","","","","","","-","","-","","-","","-"
"CC(OC(=O)NC1=CC=CC=C1)C(O)=O","-","-","-","(S)-(-)-2-[(Phenylamino)carbonyloxy]propionic acid","137.0 - 142.0","?C","412.5","K","","","","","","-","","-","","-","","-"
"NC(CCCC(N)C(O)=O)C(O)=O","-","-","-","2,6-Diaminoheptanedioic acid","300.0","?C","573.0","K","","","","","","-","","-","","-","","-"
"O=C1CCC2(CC1)OCCO2","-","-","-","1,4-Dioxaspiro[4.5]decan-8-one","74.0 - 76.0","?C","348.0","K","","","","","","-","","-","","-","","-"
"CCCCCC1CCC(CC1)C(O)=O","-","-","-","trans-4-n-Pentylcyclohexanecarboxylic acid","52.0 - 56.0","?C","327.0","K","","","","","","-","","-","","-","","-"
"CCCCCCCCCCCCCCCC(=O)OCC(COP([O-])(=O)OCC[N+](C)(C)C)OC(=O)CCCCCCCCCCCCCCC","-","-","-","L-alpha-Dipalmitoyl phosphatidylcholine","229.0 - 229.5","?C","502.2","K","","","","","","-","","-","","-","","-"
"O=P(OC1=NOC2=C1C=CC=C2)(OC1=CC=CC=C1)OC1=CC=CC=C1","-","-","-","1,2-Benzisoxazol-3-yl-diphenyl phosphate","64.0 - 68.0","?C","339.0","K","","","","","","-","","-","","-","","-"
"NC(CC1=CC=C(F)C=C1)C(O)=O","-","-","-","L-4-Fluorophenylalanine","253.0","?C","526.0","K","","","","","","-","","-","","-","","-"
"COC(=O)C1CCC(CC1)C(=O)OC","-","-","-","Dimethyl trans-1,4-cyclohexanedicarboxylate","67.0 - 70.0","?C","341.5","K","","","","","","-","","-","","-","","-"
"C[N+](C)(C)CC(O)CC([O-])=O","-","-","-","L(-)-Carnitine","208.0 - 212.0","?C","483.0","K","","","","","","-","","-","","-","","-"
"OC(=O)C1=C(O)C=CC=N1","-","-","-","3-HYDROXYPICOLINIC ACID","208.0 - 212.0","?C","483.0","K","","","","","","-","","-","","-","","-"
"CC1(C)OC(=O)C(=C2CCCN2)C(=O)O1","-","-","-","2,2-Dimethyl-5-(2-tetrahydropyrrolylidene)-1,3-dioxane-4,6-dione","171.0 - 175.0","?C","446.0","K","","","","","","-","","-","","-","","-"
"CC1(C)OC(=O)C(C(=O)O1)=C1CCCCCN1","-","-","-","2,2-Dimethyl-5-(2-hexahydroazepinylidene)-1,3-dioxan-4,6-dione","147.0 - 149.0","?C","421.0","K","","","","","","-","","-","","-","","-"
"OC1COC2C(COC12)O[N+]([O-])=O","-","-","-","Isosorbide 5-mononitrate","88.0 - 93.0","?C","363.5","K","","","","","","-","","-","","-","","-"
"OC1=NC2=C(N=CN2)C(S)=N1","-","-","-","6-Thio-2-hydroxypurine","300.0","?C","573.0","K","","","","","","-","","-","","-","","-"
"NC1=NC(O)=NC2=C1N=CN2","-","-","-","2-Hydroxy-6-aminopurine","300.0","?C","573.0","K","","","","","","-","","-","","-","","-"
"CN(C)C1=CC=C(C=C1)N=NC1=CC=C(C=C1)N=C=S","-","-","-","4-N,N-Dimethylaminoazobenzene-4'-isothiocyanate","167.0 - 171.0","?C","442.0","K","","","","","","-","","-","","-","","-"
"CC(=O)NCCC1=CC=CC=C1","-","-","-","N-Acetyl-2-phenylethylamine","48.0 - 52.0","?C","323.0","K","","","","","","-","","-","","-","","-"
"CCC1=CC(CC2=CC(CC)=C(N)C(CC)=C2)=CC(CC)=C1N","-","-","-","4,4'-Methylenebis(2,6-diethylaniline)","88.0 - 91.0","?C","362.5","K","","","","","","-","","-","","-","","-"
"ClC1=CC=C(Cl)C(C=O)=C1Cl","-","-","-","2,3,6-Trichlorobenzaldehyde","86.0 - 89.0","?C","360.5","K","","","","","","-","","-","","-","","-"
"ClC1=CC(C=O)=C(Cl)C(Cl)=C1","-","-","-","2,3,5-trichlorobenzaldehyde","72.0 - 76.0","?C","347.0","K","","","","","","-","","-","","-","","-"
"CC12CCC(=O)CC1(O)CCC2=O","-","-","-","(+)-Hexahydro-3a-hydroxy-7a-methyl-1H-inden-1,5(6H)-dione","110.0 - 118.0","?C","387.0","K","","","","","","-","","-","","-","","-"
"OC(=O)C1=CC(Br)=C(O)C(Br)=C1","-","-","-","3,5-dibromo-4-hydroxybenzoic acid","271.0 - 274.0","?C","545.5","K","","","","","","-","","-","","-","","-"
"ClC1=C(Cl)C(=O)C(Cl)(Cl)C(Cl)=C1Cl","-","-","-","2,3,4,5,6,6-Hexachloro-2,4-cyclohexadien-1-one","46.0 - 49.0","?C","320.5","K","","","","","","-","","-","","-","","-"
"C1COCCOCCOC2=C(OCCOCCO1)C=CC=C2","-","-","-","Benzo-18-crown-6","40.0 - 45.0","?C","315.5","K","","","","","","-","","-","","-","","-"
"NC1=C(C=C(C=C1)[N+]([O-])=O)C(O)=O","-","-","-","2-AMINO-5-NITROBENZOIC ACID","278.0","?C","551.0","K","","","","","","-","","-","","-","","-"
"ClC1=CC(Cl)=C(C=C1)N=C=O","-","-","-","2,4-Dichlorophenyl isocyanate","59.0 - 60.0","?C","332.5","K","","","","","","-","","-","","-","","-"
"NC(CCC1=CC=CC=C1)C(O)=O","-","-","-","(-)-2-Amino-4-phenylbutyric acid","300.0","?C","573.0","K","","","","","","-","","-","","-","","-"
"CC1=CSC(=S)N1O","-","-","-","3-Hydroxy-4-methyl-2(3H)-thiazolethione","88.0 - 93.0","?C","363.5","K","","","","","","-","","-","","-","","-"
"OC(=O)C1=CC=CNC1=O","-","-","-","2-Hydroxynicotinic acid","259.0 - 261.0","?C","533.0","K","","","","","","-","","-","","-","","-"
"CCOC(=O)C(=NO)C1=CSC(N)=N1","-","-","-","Ethyl 2-(2-aminothiazol-4-yl)-2-hydroxyiminoacetate","187.0 - 192.0","?C","462.5","K","","","","","","-","","-","","-","","-"
"CCOC(=O)C(=NOC)C1=CSC(N)=N1","-","-","-","Ethyl 2-(2-aminothiazol-4-yl)-2-methoxyiminoacetate","158.0 - 163.0","?C","433.5","K","","","","","","-","","-","","-","","-"
"CON=C(C(O)=O)C1=CSC(N)=N1","-","-","-","2-(2-Aminothiazole-4-yl)-2-methoxyiminoacetic acid","176.0 - 182.0","?C","452.0","K","","","","","","-","","-","","-","","-"
"CON=C(C(O)=O)C1=CSC(NC=O)=N1","-","-","-","2-(2-Formamidothiazole-4-yl)-2-methoxyimino acetic acid","160.0 - 165.0","?C","435.5","K","","","","","","-","","-","","-","","-"
"CCOC(=O)C(=NOC(C)(C)C(=O)OC(C)(C)C)C1=CSC(N)=N1","-","-","-","Ethyl 2-(2-aminothiazol-4-yl)-2-(1-tert- butoxycarbonyl-1-methyl)ethoxyiminoacetate","168.0 - 174.0","?C","444.0","K","","","","","","-","","-","","-","","-"
"CC(=O)OC1=C(C=CC=C1)C#N","-","-","-","2-cyanophenyl acetate","252.0 - 254.0","?C","526.0","K","","","","","","-","","-","","-","","-"
"CC(=O)OC1=CC=C(C=C1)C(C)(C)C1=CC=C(OC(C)=O)C=C1","-","-","-","Bisphenol A diacetate","86.0 - 91.0","?C","361.5","K","","","","","","-","","-","","-","","-"
"OC(=O)C1=CC(F)=C(F)C=C1","-","-","-","3,4-Difluorobenzoic acid","122.0 - 125.0","?C","396.5","K","","","","","","-","","-","","-","","-"
"CC(=O)NC1=CC=C(F)C=C1[N+]([O-])=O","-","-","-","4'-Fluoro-2'-nitroacetanilide","70.0 - 73.0","?C","344.5","K","","","","","","-","","-","","-","","-"
"FC(F)(F)C1=C(I)C=CC(Cl)=C1","-","-","-","5-Chloro-2-iodobenzotrifluoride","29.0 - 31.0","?C","303.0","K","","","","","","-","","-","","-","","-"
"CCCCOC(=O)C(C)CC","-","-","-","n-butyl 2-methylbutyrate","174.0 - 176.0","?C","448.0","K","","","","","","-","","-","","-","","-"
"O=C(OC(=O)C1=CC=NC=C1)C1=CC=NC=C1","-","-","-","Isonicotinic anhydride","133.0","?C","406.0","K","","","","","","-","","-","","-","","-"
"O=C=NC1=CC2=C(OCCOCCOCCOCCO2)C=C1","-","-","-","4'-Isocyanatobenzo-15-crown-5","35.0 - 39.0","?C","310.0","K","","","","","","-","","-","","-","","-"
"O=C=NC1=CC2=C(OCCOCCOCCOCCOCCO2)C=C1","-","-","-","4'-Isocyanatobenzo-18-crown-6","61.0 - 63.0","?C","335.0","K","","","","","","-","","-","","-","","-"
"C1=NC2=CC=C3N=CC=NC3=C2N=C1","-","-","-","Pyrazino[2,3-f]quinoxaline","249.0 - 252.0","?C","523.5","K","","","","","","-","","-","","-","","-"