"SMILES","CASRN","EXTERNALID","N","NAME","Melting Point","UNIT {Melting Point}","Melting Point {measured, converted}","UNIT {Melting Point}","Dataset","comment (property)","comment (chemical)","measurement method","Pressure","UNIT {Pressure}","Som set numeric condition","UNIT {Som set numeric condition}","Resp set numeric condition","UNIT {Resp set numeric condition}","Quality code","UNIT {Quality code}"
"NC1=C(Br)C=C(F)C(F)=C1F","-","-","-","2-Bromo-4,5,6-trifluoroaniline","58.0 - 60.0","?C","332.0","K","","","","","","-","","-","","-","","-"
"CC1=CC=CC(=C1)C(=O)NN","-","-","-","m-Toluic acid hydrazide","96.0 - 97.0","?C","369.5","K","","","","","","-","","-","","-","","-"
"NC(=O)NC1=NC=CC=C1","-","-","-","Pyridin-2-yl-urea","173.0 - 175.0","?C","447.0","K","","","","","","-","","-","","-","","-"
"FC1=C(F)C(CCl)=C(F)C(F)=C1CCl","-","-","-","1,4-Bis(chloromethyl)tetrafluorobenzene","77.0 - 78.0","?C","350.5","K","","","","","","-","","-","","-","","-"
"CCCCCCCCNC(=S)NN","-","-","-","4-Octyl-3-thiosemicarbazide","47.0 - 49.0","?C","321.0","K","","","","","","-","","-","","-","","-"
"OCCSC1=CC=C(C=C1)[N+]([O-])=O","-","-","-","2-Hydroxyethyl 4-nitrophenyl sulfide","60.0 - 61.0","?C","333.5","K","","","","","","-","","-","","-","","-"
"NC1=CC(=CC=C1N1CCCC1)C(F)(F)F","-","-","-","N-(2-Amino-4-trifluoromethylphenyl)pyrrolidine","33.0 - 35.0","?C","307.0","K","","","","","","-","","-","","-","","-"
"CC(C1=CC=C(OC(F)=C(F)F)C=C1)(C1=CC=C(OC(F)=C(F)F)C=C1)C1=CC=C(OC(F)=C(F)F)C=C1","-","-","-","1,1,1-Tris(4-trifluorovinyloxyphenyl)ethane","31.0 - 32.0","?C","304.5","K","","","","","","-","","-","","-","","-"
"CC(C)NC(=S)NN","-","-","-","4-iso-Propyl-3-thiosemicarbazide","96.0 - 97.0","?C","369.5","K","","","","","","-","","-","","-","","-"
"CC1=C(C=CC(=C1)[N+]([O-])=O)N=C=S","-","-","-","2-Methyl-4-nitrophenyl isothiocyanate","82.0 - 84.0","?C","356.0","K","","","","","","-","","-","","-","","-"
"OC(=O)C1=C(F)C(Cl)=C(F)C(Cl)=C1F","-","-","-","3,5-Dichloro-2,4,6-trifluorobenzoic acid","142.0 - 143.0","?C","415.5","K","","","","","","-","","-","","-","","-"
"CC1=CC=C(C)C(=C1)C#N","-","-","-","2,5-Dimethylbenzonitrile","13.0 - 14.0","?C","286.5","K","","","","","","-","","-","","-","","-"
"ClCC1=NN=C(S1)C1CC1","-","-","-","2-Chloromethyl-5-cyclopropyl-1,3,4-thiadiazole","80.0 - 84.0","?C","355.0","K","","","","","","-","","-","","-","","-"
"O=S(=O)(N1CCNCC1)C1=CC=CC=C1","-","-","-","1-Phenyl sulfonyl piperazine","111.0 - 112.0","?C","384.5","K","","","","","","-","","-","","-","","-"
"OC(=O)C1=C(N(N=C1)C1=CC=C(C=C1)[N+]([O-])=O)C(F)(F)F","-","-","-","1-(4-Nitrophenyl)-5-(trifluoromethyl)pyrazole-4-carboxylic acid","202.0 - 204.0","?C","476.0","K","","","","","","-","","-","","-","","-"
"NC(=S)N1CCCCC1","-","-","-","1-PIPERIDINETHIOCARBOXAMIDE","127.0 - 129.0","?C","401.0","K","","","","","","-","","-","","-","","-"
"NC(=S)NC1=CC=CC=N1","-","-","-","1-(2-Pyridyl)-2-thiourea","148.0 - 150.0","?C","422.0","K","","","","","","-","","-","","-","","-"
"N1N=NN=C1C1=CC=NC=C1","-","-","-","4-(1H-1,2,3,4-tetraazol-5-yl)pyridine","265.0 - 267.0","?C","539.0","K","","","","","","-","","-","","-","","-"
"CC(=O)C1=CC(Br)=CC=C1O","-","-","-","5'-Bromo-2'-hydroxyacetophenone","58.0 - 61.0","?C","332.5","K","","","","","","-","","-","","-","","-"
"COC1=CC=C(CC(N)=S)C=C1OC","-","-","-","3,4-Dimethoxyphenylthioacetamide","136.0 - 138.0","?C","410.0","K","","","","","","-","","-","","-","","-"
"FC(F)(F)C(=O)C1=CNC2=CC=CC=C12","-","-","-","3-(Trifluoroacetyl)indole","211.0 - 214.0","?C","485.5","K","","","","","","-","","-","","-","","-"
"NC(=O)C1=C(N)C=CS1","-","-","-","3-Aminothiophene-2-carboxamide","120.0 - 122.0","?C","394.0","K","","","","","","-","","-","","-","","-"
"NC(=O)C1=C(Cl)C=CS1","-","-","-","3-Chlorothiophene-2-carboxamide","105.0 - 107.0","?C","379.0","K","","","","","","-","","-","","-","","-"
"FC1=CC=CC(N2C=CC=C2)=C1C#N","-","-","-","N-(2-Cyano-3-fluorophenyl)pyrrole","67.0 - 69.0","?C","341.0","K","","","","","","-","","-","","-","","-"
"NNC(=O)C1=CC=C(Cl)C(Br)=C1","-","-","-","3-Bromo-4-chlorobenzhydrazide","165.0 - 168.0","?C","439.5","K","","","","","","-","","-","","-","","-"
"CCOC(=O)C1=CN=C(N)N=C1C(F)(F)F","-","-","-","ethyl 2-amino-4-(trifluoromethyl)pyrimidine-5-carboxylate","179.0 - 180.0","?C","452.5","K","","","","","","-","","-","","-","","-"
"O=C(CC#N)N1CCOCC1","-","-","-","3-morpholino-3-oxopropanenitrile","87.0 - 89.0","?C","361.0","K","","","","","","-","","-","","-","","-"
"OC(=O)CCC1=CC=CC=C1Br","-","-","-","3-(2-Bromophenyl)propionic acid","96.0 - 98.0","?C","370.0","K","","","","","","-","","-","","-","","-"
"NNC(=O)C(F)(F)F","-","-","-","Trifluoroacetic acid hydrazide","111.0 - 115.0","?C","386.0","K","","","","","","-","","-","","-","","-"
"NC(CC1=CNC2=C1C=C(F)C=C2)C(O)=O","-","-","-","5-Fluoro-dl-tryptophan","238.0 - 239.0","?C","511.5","K","","","","","","-","","-","","-","","-"
"NNC(=O)C1=CC=CC=C1C1=CC=CC=C1","-","-","-","2-Phenylbenzhydrazide","140.0 - 143.0","?C","414.5","K","","","","","","-","","-","","-","","-"
"CCOC(=O)C1=CNN=C1C(F)(F)F","-","-","-","Ethyl 3-(trifluoromethyl)-1H-pyrazole-4-carboxylate","145.0 - 148.0","?C","419.5","K","","","","","","-","","-","","-","","-"
"NC(=O)C1=C(Cl)C=C(C=C1Cl)C(F)(F)F","-","-","-","2,6-Dichloro-4-(trifluoromethyl)benzamide","166.0 - 169.0","?C","440.5","K","","","","","","-","","-","","-","","-"
"CS(=O)(=O)OC1=CC=CC=C1","-","-","-","Phenyl methanesulfonate","62.0 - 63.0","?C","335.5","K","","","","","","-","","-","","-","","-"
"OC(=O)C1=CC(F)=CC(=C1)C(F)(F)F","-","-","-","3-Fluoro-5-(trifluoromethyl)benzoic acid","104.0 - 108.0","?C","379.0","K","","","","","","-","","-","","-","","-"
"CC(=O)C1=NC2=CC=CC=C2S1","-","-","-","2-Acetylbenzothiazole","109.0 - 112.0","?C","383.5","K","","","","","","-","","-","","-","","-"
"OC(=O)CCC1=C(F)C=CC=C1","-","-","-","3-(2-Fluorophenyl)propionic acid","76.0 - 78.0","?C","350.0","K","","","","","","-","","-","","-","","-"
"NC1=NNC=C1Br","-","-","-","3-Amino-4-bromopyrazole","133.0 - 135.0","?C","407.0","K","","","","","","-","","-","","-","","-"
"FC1=NC2=C(NC=N2)C(Cl)=N1","-","-","-","6-Chloro-2-fluoropurine","162.0 - 163.0","?C","435.5","K","","","","","","-","","-","","-","","-"
"ClC1=CC=C(C=C1)C(=O)N=C=S","-","-","-","4-Chlorobenzoyl isothiocyanate","45.0 - 46.0","?C","318.5","K","","","","","","-","","-","","-","","-"
"CC1=C(NC(N)=S)C=C(F)C=C1","-","-","-","5-Fluoro-2-methylphenyl thiourea","120.0 - 123.0","?C","394.5","K","","","","","","-","","-","","-","","-"
"CCCC(=O)C1=CC=C(N)C=C1","-","-","-","4'-Aminobutyrophenone","94.0 - 95.0","?C","367.5","K","","","","","","-","","-","","-","","-"
"CC1=CC=C2N=C(C=C(O)C2=C1)C(F)(F)F","-","-","-","4-Hydroxy-6-methyl-2-(trifluoromethyl)quinoline","252.0 - 253.0","?C","525.5","K","","","","","","-","","-","","-","","-"
"CC1=CC=C2N=C(C=C(Cl)C2=C1)C(F)(F)F","-","-","-","4-Chloro-6-methyl-2-(trifluoromethyl)quinoline","62.0 - 65.0","?C","336.5","K","","","","","","-","","-","","-","","-"
"FC(F)(F)C1=NC2=CC=C(Br)C=C2C(Cl)=C1","-","-","-","6-Bromo-4-chloro-trifluoromethyl quinoline","98.0 - 100.0","?C","372.0","K","","","","","","-","","-","","-","","-"
"SC1=CC(Cl)=CC(Cl)=C1","-","-","-","3,5-Dichlorothiophenol","59.0 - 61.0","?C","333.0","K","","","","","","-","","-","","-","","-"
"S=C=NC(C1=CC=CC=C1)(C1=CC=CC=C1)C1=CC=CC=C1","-","-","-","Trityl isothiocyanate","138.0 - 140.0","?C","412.0","K","","","","","","-","","-","","-","","-"
"NC(=S)NC1=CC=C(C=C1)C(F)(F)F","-","-","-","1-[4-(Trifluoromethyl)phenyl]-2-thiourea","144.0 - 145.0","?C","417.5","K","","","","","","-","","-","","-","","-"
"CCCCCCCCCCC#CC#CCCCCCCC(O)=O","-","-","-","8,10-Heneicosadiynoic acid","51.0 - 52.0","?C","324.5","K","","","","","","-","","-","","-","","-"
"OC(C(O)C(=O)NC1=CC=C(Cl)C=C1)C(O)=O","-","-","-","(+)-4'-Chlorotartranilic acid","193.0 - 195.0","?C","467.0","K","","","","","","-","","-","","-","","-"
"FC1=CC=C(C=C1)N1C=CNC1=S","-","-","-","1-(4-Fluorophenyl)imidazoline-2-thione","207.0 - 209.0","?C","481.0","K","","","","","","-","","-","","-","","-"
"FC(F)(F)C1=CC(=CC=C1)N1C=CNC1=S","-","-","-","1-(3-Trifluoromethylphenyl)imidazoline-2-thione","157.0 - 159.0","?C","431.0","K","","","","","","-","","-","","-","","-"
"S=C1NC=CN1C1=CC=CC=C1","-","-","-","1-Phenylimidazoline-2-thione","177.0 - 179.0","?C","451.0","K","","","","","","-","","-","","-","","-"
"ClC1=CC=C(C=C1)N1C=CNC1=S","-","-","-","1-(4-Chlorophenyl)imidazoline-2-thione","223.0 - 226.0","?C","497.5","K","","","","","","-","","-","","-","","-"
"FC(F)(F)C1=CC=C(C=C1)N1C=CNC1=S","-","-","-","1-(4-Trifluoromethylphenyl)imidazoline-2-thione","194.0 - 196.0","?C","468.0","K","","","","","","-","","-","","-","","-"
"BrC1=CC=C(C=C1)N1C=CNC1=S","-","-","-","1-(4-Bromophenyl)imidazoline-2-thione","244.0 - 246.0","?C","518.0","K","","","","","","-","","-","","-","","-"
"FC1=CC(=CC=C1)N1C=CNC1=S","-","-","-","1-(3-Fluorophenyl)imidazoline-2-thione","162.0 - 164.0","?C","436.0","K","","","","","","-","","-","","-","","-"
"C1COCCOC2=C(OCCOCCO1)C=C1C=CC=CC1=C2","-","-","-","2,3-Naphtho-15-crown-5","117.0 - 118.0","?C","390.5","K","","","","","","-","","-","","-","","-"
"OCCN1CCN(CC2=CC=C(F)C=C2)CC1","-","-","-","1-(4-Fluorobenzyl)-4-(2-hydroxyethyl)piperazine","55.0 - 56.0","?C","328.5","K","","","","","","-","","-","","-","","-"
"CC1=NSC(N)=N1","-","-","-","5-Amino-3-methyl-1,2,4-thiadiazole","202.0 - 209.0","?C","478.5","K","","","","","","-","","-","","-","","-"
"NC1=C(C(O)=O)C(F)=C(Br)C=C1Br","-","-","-","2-Amino-3,5-dibromo-6-fluorobenzoic acid","235.0 - 238.0","?C","509.5","K","","","","","","-","","-","","-","","-"
"FC1=C(CN2N=CC(Cl)=C(Cl)C2=O)C=CC=C1","-","-","-","4,5-Dichloro-2-(2-fluorobenzyl)-2,3-dihydropyridazin-3-one","110.0 - 112.0","?C","384.0","K","","","","","","-","","-","","-","","-"
"NC1=C(OC2=CC=CC=C2F)N=CC=C1","-","-","-","3-Amino-2-(2-fluorophenoxy)pyridine","87.0 - 89.0","?C","361.0","K","","","","","","-","","-","","-","","-"
"NC(=N)NS(=O)(=O)C1=CC(=CC(=C1)C(F)(F)F)C(F)(F)F","-","-","-","3,5-Bis(trifluoromethyl)benzenesulfonyl guanidine","194.0 - 197.0","?C","468.5","K","","","","","","-","","-","","-","","-"
"NC1=CC(=NC(N)=N1)C1=CC=C(F)C=C1","-","-","-","2,4-Diamino-6-(4-fluorophenyl)pyrimidine","164.0 - 166.0","?C","438.0","K","","","","","","-","","-","","-","","-"
"COC(=O)C1=CN=C(NN)N=C1C(F)(F)F","-","-","-","Methyl 2-hydrazino-4-(trifluoromethyl)pyrimidine-5-carboxylate","132.0 - 134.0","?C","406.0","K","","","","","","-","","-","","-","","-"
"FC(F)(F)C1=NC(Cl)=NC=C1C(=O)OCC1=CC=CC=C1","-","-","-","Benzyl 2-chloro-4-(trifluoromethyl)pyrimidine-5-carboxylate","45.0 - 47.0","?C","319.0","K","","","","","","-","","-","","-","","-"
"NNC(=O)C1=C(N(N=C1)C1=CC=C(Cl)C=C1)C(F)(F)F","-","-","-","1-(4-Chlorophenyl)-5-(trifluoromethyl)-1H-pyrazole-4-carbohydrazide","179.0 - 181.0","?C","453.0","K","","","","","","-","","-","","-","","-"
"COC(=O)C(CCSC)NC(=O)C1=CC=C(C=C1)C(F)(F)F","-","-","-","N-[4-(Trifluoromethyl)benzoyl]-l-methionine methylester","94.0 - 96.0","?C","368.0","K","","","","","","-","","-","","-","","-"
"FC1=CC=C(OC2=CC=CC(F)=C2C#N)C=C1","-","-","-","2-Fluoro-6-(4-fluorophenoxy)benzonitrile","73.0 - 74.0","?C","346.5","K","","","","","","-","","-","","-","","-"
"FC(F)(F)C1=CC(Br)=C(I)C(Cl)=C1","-","-","-","3-Bromo-5-chloro-4-iodobenzotrifluoride","29.0 - 31.0","?C","303.0","K","","","","","","-","","-","","-","","-"
"FC(F)(F)C1=CC=CC(CS(=O)(=O)CC#N)=C1","-","-","-","3-(Trifluoromethyl)benzylsulfonyl acetonitrile","119.0 - 121.0","?C","393.0","K","","","","","","-","","-","","-","","-"
"NC(CS(=O)(=O)CC1=CC=C(F)C=C1)=NO","-","-","-","2-(4-Fluorobenzylsulfonyl)acetamidoxime","182.0 - 185.0","?C","456.5","K","","","","","","-","","-","","-","","-"
"CCOC(=O)C1=CSC(=N1)C1=C(F)C=C(F)C=C1","-","-","-","Ethyl 2-(2,4-difluorophenyl)-1,3-thiazole-4-carboxylate","50.0 - 52.0","?C","324.0","K","","","","","","-","","-","","-","","-"
"NC(=S)C1=CC=C(OC2=NC=C(C=C2)C(F)(F)F)C=C1","-","-","-","4-{[5-(trifluoromethyl)-2-pyridyl]oxy}benzene-1-carbothioamide","175.0 - 178.0","?C","449.5","K","","","","","","-","","-","","-","","-"
"NC(=S)NC1=CC(=CC(=C1)C(F)(F)F)C(F)(F)F","-","-","-","N-[3,5-Di(trifluoromethyl)phenyl]thiourea","166.0 - 168.0","?C","440.0","K","","","","","","-","","-","","-","","-"
"NNC(=O)C1=CC=C(OC(F)(F)F)C=C1","-","-","-","4-(Trifluoromethoxy)benzoic acid hydrazide","110.0 - 112.0","?C","384.0","K","","","","","","-","","-","","-","","-"
"NNC(=O)C1=C(OC(F)(F)F)C=CC=C1","-","-","-","2-(Trifluoromethoxy)benzoic acid hydrazide","103.0 - 105.0","?C","377.0","K","","","","","","-","","-","","-","","-"
"CNC1=NC=C(C=C1[N+]([O-])=O)C(F)(F)F","-","-","-","N2-Methyl-3-nitro-5-(trifluoromethyl)pyridin-2-amine","98.0 - 100.0","?C","372.0","K","","","","","","-","","-","","-","","-"
"CCOC(=O)C1=C(N)C2=CC(C(=O)OCC)=C(N=C2S1)C(F)(F)F","-","-","-","Diethyl 3-amino-6-(trifluoromethyl)thieno[2,3-b]-pyridine-2,5-dicarboxylate","181.0 - 183.0","?C","455.0","K","","","","","","-","","-","","-","","-"
"CC1=CC=C(C=C1F)C(N)=NO","-","-","-","3-Fluoro-4-methylbenzamide oxime","105.0 - 107.0","?C","379.0","K","","","","","","-","","-","","-","","-"
"OC1=CC=C(C=C1)C(=O)OC1=CC=CC=C1","-","-","-","Phenyl 4-hydroxybenzoate","176.0 - 178.0","?C","450.0","K","","","","","","-","","-","","-","","-"
"FC1=CC(=CC(Br)=C1)C#N","-","-","-","3-bromo-5-fluorobenzonitrile","43.0 - 46.0","?C","317.5","K","","","","","","-","","-","","-","","-"
"ClC1=CC=C(C=C1)S(=O)(=O)N(C1CC1)C1CCNCC1","-","-","-","4-Chloro-N-cyclopropyl-N-piperidin-4-ylbenzenesulfonamide","111.0 - 114.0","?C","385.5","K","","","","","","-","","-","","-","","-"
"[O-][N+](=O)C1=CC=C(S)C=C1","-","-","-","4-Nitrothiophenol","74.0 - 77.0","?C","348.5","K","","","","","","-","","-","","-","","-"
"COC(=O)C1=CC(Br)=C(C=C1)C(=O)OC","-","-","-","Dimethyl bromoterephthalate","52.0 - 54.0","?C","326.0","K","","","","","","-","","-","","-","","-"
"OC1=CC(=NC2=CC=C(Cl)C=C12)C(F)(F)F","-","-","-","6-Chloro-4-hydroxy-2-(trifluoromethyl)quinoline","280.0 - 289.0","?C","557.5","K","","","","","","-","","-","","-","","-"
"FC(F)(F)C1=NC2=CC=C(Cl)C=C2C(Cl)=C1","-","-","-","4,6-Dichloro-2-(trifluoromethyl)quinoline","104.0 - 107.0","?C","378.5","K","","","","","","-","","-","","-","","-"
"C=CC[Si](C1=CC=CC=C1)(C1=CC=CC=C1)C1=CC=CC=C1","-","-","-","Allyltriphenylsilane","88.0 - 90.0","?C","362.0","K","","","","","","-","","-","","-","","-"
"NC(=S)NC1=CC=C(I)C=C1","-","-","-","1-(4-Iodophenyl)-2-thiourea","183.0 - 184.0","?C","456.5","K","","","","","","-","","-","","-","","-"
"CC1=C(CP(O)(O)=O)C=CC=C1","-","-","-","2-Methylbenzylphosphonic acid","195.0 - 196.0","?C","468.5","K","","","","","","-","","-","","-","","-"
"CN(C(Cl)=S)C1=CC=CC=C1","-","-","-","N-Methyl-N-phenylthiocarbamoyl chloride","31.0 - 34.0","?C","305.5","K","","","","","","-","","-","","-","","-"
"OC(=O)C1=C(Cl)C=CC(I)=C1","-","-","-","2-Chloro-5-iodobenzoic acid","161.0 - 163.0","?C","435.0","K","","","","","","-","","-","","-","","-"
"ClC1=CC=CC(Cl)=C1I","-","-","-","2,6-Dichloroiodobenzene","64.0 - 67.0","?C","338.5","K","","","","","","-","","-","","-","","-"
"[O-][N+](=O)C1=CC=C(SC2=CC=C(C=C2)N=C=S)C=C1","-","-","-","4-Isothiocyanato-4'-nitrodiphenyl sulfide","124.0 - 126.0","?C","398.0","K","","","","","","-","","-","","-","","-"
"[O-][N+](=O)C1=CC=C(OC2=CC=C(C=C2)N=C=S)C=C1","-","-","-","4-Isothiocyanato-4'-nitrodiphenyl ether","122.0 - 124.0","?C","396.0","K","","","","","","-","","-","","-","","-"
"NC1=C(F)C(F)=C(Br)C(F)=C1F","-","-","-","4-Bromotetrafluoroaniline","59.0 - 61.0","?C","333.0","K","","","","","","-","","-","","-","","-"
"COC(=O)C1=CC(=CC(Cl)=C1)C(=O)OC","-","-","-","dimethyl 5-chloroisophthalate","78.0 - 80.0","?C","352.0","K","","","","","","-","","-","","-","","-"
"COC1=C(C=CC(F)=C1)C(O)=O","-","-","-","4-Fluoro-2-methoxybenzoic acid","134.0 - 136.0","?C","408.0","K","","","","","","-","","-","","-","","-"
"NNC(=O)C1=CC=C(Br)C=C1Cl","-","-","-","4-Bromo-2-chlorobenzhydrazide","173.0 - 175.0","?C","447.0","K","","","","","","-","","-","","-","","-"
"COC1=CC(CC(O)=O)=CC(Br)=C1O","-","-","-","3-Bromo-4-hydroxy-5-methoxyphenylacetic acid","183.0 - 185.0","?C","457.0","K","","","","","","-","","-","","-","","-"
"CC1=CC(Br)=CC(C)=C1I","-","-","-","5-Bromo-2-iodo-m-xylene","42.0 - 44.0","?C","316.0","K","","","","","","-","","-","","-","","-"
"COC1=C(N)C=C(C=C1)C1CCCCC1","-","-","-","5-Cyclohexyl-o-anisidine","66.0 - 68.0","?C","340.0","K","","","","","","-","","-","","-","","-"
"NNC(=S)NCC1=CC=C2OCOC2=C1","-","-","-","4-(3,4-Methylenedioxybenzyl)-3-thiosemicarbazide","158.0 - 160.0","?C","432.0","K","","","","","","-","","-","","-","","-"
"COC1=C(N)C=C(C)C(=C1)C1=CC=CC=C1","-","-","-","5-Methyl-4-phenyl-o-anisidine","65.0 - 67.0","?C","339.0","K","","","","","","-","","-","","-","","-"
"CC1=CC=C(NC(=O)C(O)C(O)C(O)=O)C=C1","-","-","-","(-)-4'-Methyltartranilic acid","191.0 - 192.0","?C","464.5","K","","","","","","-","","-","","-","","-"
"NC(=S)NCCN1CCCCC1","-","-","-","1-(2-Piperidinoethyl)-2-thiourea","107.0 - 110.0","?C","381.5","K","","","","","","-","","-","","-","","-"
"COC1=CC(NC(=S)NN)=CC(OC)=C1OC","-","-","-","4-(3,4,5-Trimethoxyphenyl)-3-thiosemicarbazide","178.0 - 179.0","?C","451.5","K","","","","","","-","","-","","-","","-"
"[O-][N+](=O)C1=CC(=CC=C1OC1=C(Br)C=CC=C1)C(F)(F)F","-","-","-","2-Bromo-2'-nitro-4'-(trifluoromethyl)diphenylether","58.0 - 62.0","?C","333.0","K","","","","","","-","","-","","-","","-"
"CC1=CC(N)=C(C)C=C1Cl","-","-","-","4-Chloro-2,5-dimethylaniline","94.0 - 96.0","?C","368.0","K","","","","","","-","","-","","-","","-"
"[O-][N+](=O)C1=CC=C2NC(=O)OC(=O)C2=C1","-","-","-","5-Nitroisatoic anhydride","259.0 - 263.0","?C","534.0","K","","","","","","-","","-","","-","","-"
"C=C[Si]12OCCN(CCO1)CCO2","-","-","-","1-Vinylsilatrane","163.0 - 165.0","?C","437.0","K","","","","","","-","","-","","-","","-"
"NNC(=S)NC1CCCCC1","-","-","-","4-Cyclohexyl-3-thiosemicarbazide","142.0 - 145.0","?C","416.5","K","","","","","","-","","-","","-","","-"
"NNC(=S)NCCC1=CC=CC=C1","-","-","-","4-(alpha-Phenethyl)-3-thiosemicarbazide","112.0 - 114.0","?C","386.0","K","","","","","","-","","-","","-","","-"
"NC(=S)NC1=CC=CC(Br)=C1","-","-","-","1-(3-Bromophenyl)-2-thiourea","150.0 - 151.0","?C","423.5","K","","","","","","-","","-","","-","","-"
"COC(=O)C1=C(OC)C(OC)=CC=C1","-","-","-","Methyl 2,3-dimethoxy benzoate","46.0 - 49.0","?C","320.5","K","","","","","","-","","-","","-","","-"
"CSC(NC1=CC=CC=C1)=NC#N","-","-","-","N-Cyano-S-methyl-N'phenylisothiourea","185.0 - 186.0","?C","458.5","K","","","","","","-","","-","","-","","-"
"OC(=O)CCC1=CC=CC(Cl)=C1","-","-","-","3-(3-Chlorophenyl)propionic acid","72.0 - 74.0","?C","346.0","K","","","","","","-","","-","","-","","-"
"OC(=O)C1=CC=C(Cl)C=C1Br","-","-","-","2-Bromo-4-chlorobenzoic acid","159.0 - 161.0","?C","433.0","K","","","","","","-","","-","","-","","-"
"OC(C1=CC=C(C=C1)C1=CC=C(C=C1)C(O)(C(F)(F)F)C(F)(F)F)(C(F)(F)F)C(F)(F)F","-","-","-","4,4'-Bis(2-hydroxyhexafluoroisopropyl)diphenyl","125.0 - 126.0","?C","398.5","K","","","","","","-","","-","","-","","-"
"CSC1=NC=CN=C1","-","-","-","2-(Methylthio)pyrazine","44.0 - 47.0","?C","318.5","K","","","","","","-","","-","","-","","-"
"CC1=CC=CC=C1CCC(O)=O","-","-","-","3-(2-Methylphenyl)propionic acid","104.0 - 106.0","?C","378.0","K","","","","","","-","","-","","-","","-"
"ClC1=CC(Cl)=C(Cl)C(N=C=S)=C1Cl","-","-","-","2,3,5,6-Tetrachlorophenyl isothiocyanate","88.0 - 90.0","?C","362.0","K","","","","","","-","","-","","-","","-"
"ClC1=CC(Cl)=C(N=C=S)C(Cl)=C1","-","-","-","2,4,6-Trichlorophenyl isothiocyanate","74.0 - 76.0","?C","348.0","K","","","","","","-","","-","","-","","-"
"BrC1=CC(Br)=C(N=C=S)C(Br)=C1","-","-","-","2,4,6-Tribromophenyl isothiocyanate","106.0 - 110.0","?C","381.0","K","","","","","","-","","-","","-","","-"
"OC(=O)C1=CC=C(OC2=CC=C(C=C2)C(O)=O)C=C1","-","-","-","4,4'-Oxydibenzoic acid","329.0 - 330.0","?C","602.5","K","","","","","","-","","-","","-","","-"