"SMILES","CASRN","EXTERNALID","N","NAME","Melting Point","UNIT {Melting Point}","Melting Point {measured, converted}","UNIT {Melting Point}","Dataset","comment (property)","comment (chemical)","measurement method","Pressure","UNIT {Pressure}","Som set numeric condition","UNIT {Som set numeric condition}","Resp set numeric condition","UNIT {Resp set numeric condition}","Quality code","UNIT {Quality code}"
"OC(=O)C(F)C1=CC=CC=C1","-","-","-","alpha-Fluorophenylacetic acid","82.0 - 85.0","?C","356.5","K","","","","","","-","","-","","-","","-"
"OC(=O)C=CC1=CC=CN=C1","-","-","-","3-(3-Pyridyl)acrylic acid","233.0 - 237.0","?C","508.0","K","","","","","","-","","-","","-","","-"
"ClC1=NC=CC=C1C#N","-","-","-","2-Chloronicotinonitrile","107.0 - 109.0","?C","381.0","K","","","","","","-","","-","","-","","-"
"O(C1=CC=CC=C1)C1=CC=C(OC2=CC=CC=C2)C=C1","-","-","-","1,4-Diphenoxybenzene","73.0 - 77.0","?C","348.0","K","","","","","","-","","-","","-","","-"
"CCCCCOC1=CC=C(C=C1)C(O)=O","-","-","-","4-n-Amyloxybenzoic acid","123.0 - 127.0","?C","398.0","K","","","","","","-","","-","","-","","-"
"CC1=CC(=CC(C)=C1O)[N+]([O-])=O","-","-","-","2,6-DIMETHYL-4-NITROPHENOL","164.0 - 169.0","?C","439.5","K","","","","","","-","","-","","-","","-"
"NC(=O)NC(CC(O)=O)C(O)=O","-","-","-","Carbamoyl-dl-aspartic acid","174.0 - 175.0","?C","447.5","K","","","","","","-","","-","","-","","-"
"NC1=CC=CC(OC2=CC=C(C=C2)S(=O)(=O)C2=CC=C(OC3=CC(N)=CC=C3)C=C2)=C1","-","-","-","4,4'-Bis(3-aminophenoxy)diphenyl sulfone","132.0 - 135.0","?C","406.5","K","","","","","","-","","-","","-","","-"
"NNC(=O)C1=CC=C(C=C1)[N+]([O-])=O","-","-","-","4-Nitrobenzoic hydrazide","210.0 - 214.0","?C","485.0","K","","","","","","-","","-","","-","","-"
"CCOC(=O)CC(=O)C=P(C1=CC=CC=C1)(C1=CC=CC=C1)C1=CC=CC=C1","-","-","-","Ethyl 3-oxo-4-(triphenylphosphoranylidene)butyrate","101.0 - 106.0","?C","376.5","K","","","","","","-","","-","","-","","-"
"CC(=O)C1=CC(C(N)=O)=C(O)C=C1","-","-","-","5-acetylsalicylamide","221.0 - 226.0","?C","496.5","K","","","","","","-","","-","","-","","-"
"CCOC(CN1C(=O)C2=C(C=CC=C2)C1=O)OCC","-","-","-","Phthalimidoacetaldehyde diethyl acetal","72.0 - 74.0","?C","346.0","K","","","","","","-","","-","","-","","-"
"CN(C)C1=CC=C(C=C1)N=NC1=CC=C(C)C=C1","-","-","-","4-DIMETHYLAMINO-4'-METHYLAZOBENZENE","165.0 - 167.0","?C","439.0","K","","","","","","-","","-","","-","","-"
"CCCCCC1CCCC(=O)O1","-","-","-","DELTA-DECALACTONE","-27.0","?C","246.0","K","","","","","","-","","-","","-","","-"
"CC(Cl)C(N)=O","-","-","-","2-Chloropropionamide","76.0 - 81.0","?C","351.5","K","","","","","","-","","-","","-","","-"
"CC(C)(C)OC(=O)NC1(CC1C1=CC=CC=C1)C(O)=O","-","-","-","(1R,2R)-N-Boc-1-Amino-2-phenylcyclopropanecarboxylic acid","180.0 - 182.0","?C","454.0","K","","","","","","-","","-","","-","","-"
"OC1CC(O)C(O)CO1","-","-","-","2-Deoxy-L-ribose","69.0 - 72.0","?C","343.5","K","","","","","","-","","-","","-","","-"
"NNC1=C2C=CC=CC2=NC2=C1C=CC=C2","-","-","-","9-Hydrazinoacridine","177.0","?C","450.0","K","","","","","","-","","-","","-","","-"
"NC1=C(O)C=C(C=C1)C(O)=O","-","-","-","4-Amino-3-hydroxybenzoic acid","211.0 - 215.0","?C","486.0","K","","","","","","-","","-","","-","","-"
"COC(=O)C1=C(Cl)C=C(C=C1)[N+]([O-])=O","-","-","-","Methyl 2-chloro-4-nitrobenzoate","77.0 - 78.0","?C","350.5","K","","","","","","-","","-","","-","","-"
"CNC(C)=CC(=O)OC","-","-","-","Methyl 3-methylaminocrotonate","62.0 - 68.0","?C","338.0","K","","","","","","-","","-","","-","","-"
"BrC1=CC2=C(C=C1)C1=C(C=CC=C1)C2=O","-","-","-","2-Bromo-9-fluorenone","143.0 - 149.0","?C","419.0","K","","","","","","-","","-","","-","","-"
"COC1=CC=C(C=C1)C1=NN=C(CCl)O1","-","-","-","2-Chloromethyl-5-(4-methoxyphenyl)-1,3,4-oxadiazole","91.0 - 95.0","?C","366.0","K","","","","","","-","","-","","-","","-"
"ClCC1=NN=C(O1)C1=CC=C(Cl)C=C1","-","-","-","2-Chloromethyl-5-(4-chlorophenyl)-1,3,4-oxadiazole","81.0 - 85.0","?C","356.0","K","","","","","","-","","-","","-","","-"
"CC1=CC=C(C=C1)C(N)=S","-","-","-","4-Methylthiobenzamide","163.0 - 168.0","?C","438.5","K","","","","","","-","","-","","-","","-"
"NC1=NNC(=C1Br)C1=CC=CC=C1","-","-","-","3-Amino-4-bromo-5-phenylpyrazole","118.0 - 120.0","?C","392.0","K","","","","","","-","","-","","-","","-"
"NC1=C(Cl)C=C(I)C=C1","-","-","-","2-Chloro-4-iodoaniline","73.0 - 75.0","?C","347.0","K","","","","","","-","","-","","-","","-"
"O=C(CC#N)C1=CC=CS1","-","-","-","2-Thenoylacetonitrile","112.0","?C","385.0","K","","","","","","-","","-","","-","","-"
"COC(=O)C(=O)CC(C)=O","-","-","-","Methyl 2,4-dioxopentanoate","63.0 - 64.0","?C","336.5","K","","","","","","-","","-","","-","","-"
"CS(=O)(=O)C1=CC=C(Br)C=C1","-","-","-","4-Bromophenyl methyl sulfone","102.0 - 105.0","?C","376.5","K","","","","","","-","","-","","-","","-"
"CCOC(=O)C1=C(N)N(C)N=C1","-","-","-","Ethyl 5-amino-1-methyl-1H-pyrazole-4-carboxylate","101.0 - 102.0","?C","374.5","K","","","","","","-","","-","","-","","-"
"[O-][N+](=O)C1=CC(Cl)=C(C=C1)C#N","-","-","-","2-Chloro-4-nitrobenzonitrile","83.0 - 84.0","?C","356.5","K","","","","","","-","","-","","-","","-"
"CC1=CC2=C(SC=C2)C=C1","-","-","-","5-Methylbenzo[b]thiophene","35.0 - 36.0","?C","308.5","K","","","","","","-","","-","","-","","-"
"NC1=C(N)C=C(C=C1)C(F)(F)F","-","-","-","4-(Trifluoromethyl)-o-phenylenediamine","56.0 - 58.0","?C","330.0","K","","","","","","-","","-","","-","","-"
"FC(F)(F)C1=CC=C(C=C1)P(C1=CC=C(C=C1)C(F)(F)F)C1=CC=C(C=C1)C(F)(F)F","-","-","-","Tris(4-trifluoromethylphenyl)phosphine","72.0 - 75.0","?C","346.5","K","","","","","","-","","-","","-","","-"
"NC1=C(C=C(I)C=C1)C(O)=O","-","-","-","2-AMINO-5-IODOBENZOIC ACID","219.0 - 221.0","?C","493.0","K","","","","","","-","","-","","-","","-"
"NC1=C(N)C=C(Cl)C(F)=C1","-","-","-","4-Chloro-5-fluoro-o-phenylenediamine","110.0 - 112.0","?C","384.0","K","","","","","","-","","-","","-","","-"
"O=S1(=O)C=CC2=C1C=CC=C2","-","-","-","Thianaphthene-1,1-dioxide","138.0 - 142.0","?C","413.0","K","","","","","","-","","-","","-","","-"
"O=C(CC#N)C1=CC=CO1","-","-","-","3-(2-furyl)-3-oxopropanenitrile","81.0 - 83.0","?C","355.0","K","","","","","","-","","-","","-","","-"
"FC1=CC2=C(NC(S)=N2)C=C1Cl","-","-","-","6-Chloro-5-fluorobenzimidazole-2-thiol","298.0 - 301.0","?C","572.5","K","","","","","","-","","-","","-","","-"
"CC1=C(C(O)=O)C(C)=NO1","-","-","-","3,5-Dimethylisoxazole-4-carboxylic acid","141.0 - 142.0","?C","414.5","K","","","","","","-","","-","","-","","-"
"O=CC1=COC2=C(C=CC=C2)C1=O","-","-","-","Chromone-3-carboxaldehyde","151.0 - 155.0","?C","426.0","K","","","","","","-","","-","","-","","-"
"COC1=CC=C(C=C1)C(=O)CC#N","-","-","-","4-Methoxybenzoylacetonitrile","129.0 - 132.0","?C","403.5","K","","","","","","-","","-","","-","","-"
"NC(=S)NC1=C(F)C=C(F)C=C1","-","-","-","2,4-Difluorophenylthiourea","163.0 - 168.0","?C","438.5","K","","","","","","-","","-","","-","","-"
"CCOC(=O)C1=CC(=C(Cl)C=C1)[N+]([O-])=O","-","-","-","Ethyl 4-chloro-3-nitrobenzoate","57.0 - 61.0","?C","332.0","K","","","","","","-","","-","","-","","-"
"CC(C)(C)P(C1=CC=CC=C1C1=CC=CC=C1)C(C)(C)C","-","-","-","2-(Di-tert-butylphosphino)biphenyl","84.0 - 87.0","?C","358.5","K","","","","","","-","","-","","-","","-"
"C1CCC(CC1)P(C1CCCCC1)C1=CC=CC=C1C1=CC=CC=C1","-","-","-","2-(Dicyclohexylphosphino)biphenyl","102.0 - 106.0","?C","377.0","K","","","","","","-","","-","","-","","-"
"COC(=O)C1=CC(Br)=CN=C1","-","-","-","Methyl 5-bromonicotinate","98.0 - 100.0","?C","372.0","K","","","","","","-","","-","","-","","-"
"CCOC(=O)C1=CC2=CC=CC(OC)=C2O1","-","-","-","Ethyl 7-methoxybenzofuran-2-carboxylate","85.0 - 90.0","?C","360.5","K","","","","","","-","","-","","-","","-"
"[O-][N+](=O)C=CC1=C(Cl)C=CC=C1Cl","-","-","-","2,6-Dichloro-omega-nitrostyrene","62.0 - 66.0","?C","337.0","K","","","","","","-","","-","","-","","-"
"ClC1=CC(=CC(Cl)=C1)S(Cl)(=O)=O","-","-","-","3,5-Dichlorobenzenesulfonyl chloride","53.0 - 57.0","?C","328.0","K","","","","","","-","","-","","-","","-"
"COC1=CC(=C(OC)C=C1)S(Cl)(=O)=O","-","-","-","2,5-Dimethoxybenzenesulfonyl chloride","115.0 - 116.0","?C","388.5","K","","","","","","-","","-","","-","","-"
"OCCS(=O)(=O)C1=CC2=C(NC(=O)O2)C=C1","-","-","-","6-[(2-Hydroxyethyl)sulfonyl]benzoxazol-2-(3H)one","207.0 - 211.0","?C","482.0","K","","","","","","-","","-","","-","","-"
"CC1=C(C=CC=C1Cl)S(Cl)(=O)=O","-","-","-","3-Chloro-2-methylbenzenesulfonyl chloride","71.0 - 73.0","?C","345.0","K","","","","","","-","","-","","-","","-"
"CCCCC(=O)C1=CC2=C(OCCOCCOC3=C(OCCOCCO2)C=C(C=C3)C(=O)CCCC)C=C1","-","-","-","4',4''(5'')-Divaleryldibenzo-18-crown-6","117.0 - 133.0","?C","398.0","K","","","","","","-","","-","","-","","-"
"C1COCCOC2=CC=CC=C2OCCOCCOCCOCCOC2=C(OCCOCCO1)C=CC=C2","-","-","-","Dibenzo-30-crown-10","104.0 - 108.0","?C","379.0","K","","","","","","-","","-","","-","","-"
"BrC1=CC2=C(OCCOCCOCCOCCOCCO2)C=C1","-","-","-","4'-Bromobenzo-18-crown-6","79.0 - 83.0","?C","354.0","K","","","","","","-","","-","","-","","-"
"OC(=O)C1=C(F)C(O)=C(F)C(F)=C1","-","-","-","3-Hydroxy-2,4,5-trifluorobenzoic acid","143.0 - 147.0","?C","418.0","K","","","","","","-","","-","","-","","-"
"OC1C(O)C(O)C(O)C(O)C1O","-","-","-","L-chiro-Inositol","230.0","?C","503.0","K","","","","","","-","","-","","-","","-"
"CCC(C)C(N)C(O)=O","-","-","-","D-Alloisoleucine","285.0","?C","558.0","K","","","","","","-","","-","","-","","-"
"ClS(=O)(=O)C1=C(C=CC=C1)C#N","-","-","-","2-Cyanobenzenesulfonyl chloride","69.0 - 70.0","?C","342.5","K","","","","","","-","","-","","-","","-"
"BrC1=C(Br)C(Br)=C(Br)C2=C1C(=O)OS2(=O)=O","-","-","-","Tetrabromo-2-sulfobenzoic acid cyclic anhydride","215.0 - 220.0","?C","490.5","K","","","","","","-","","-","","-","","-"
"O=C(C=CC=CC1=CC=CC=C1)C=CC=CC1=CC=CC=C1","-","-","-","1,9-Diphenyl-1,3,6,8-nonatetraen-5-one","139.0 - 144.0","?C","414.5","K","","","","","","-","","-","","-","","-"
"CC(NC(C)=O)C1=CC=CC=C1","-","-","-","(R)-(+)-N-Acetyl-1-methylbenzylamine","102.0 - 103.0","?C","375.5","K","","","","","","-","","-","","-","","-"
"CN1CCN(CC1)C(=S)SSC(=S)N1CCN(C)CC1","-","-","-","Bis(4-methyl-1-piperazinylthiocarbonyl) disulfide","142.0 - 143.0","?C","415.5","K","","","","","","-","","-","","-","","-"
"O=C(OC1=CC=C2C=CC=CC2=C1C1=C(OC(=O)C2=CC=CC=C2)C=CC2=C1C=CC=C2)C1=CC=CC=C1","-","-","-","(R)-1,1'-Bi-2-naphthol dibenzoate","163.0 - 166.0","?C","437.5","K","","","","","","-","","-","","-","","-"
"CC1=C(I)C=CC(N)=C1","-","-","-","4-Iodo-3-methylaniline","50.0 - 55.0","?C","325.5","K","","","","","","-","","-","","-","","-"
"O=CC1=CC=C(S1)C1=CC=CS1","-","-","-","2,2'-Bithienyl-5-carboxaldehyde","57.0 - 58.0","?C","330.5","K","","","","","","-","","-","","-","","-"
"CC1=C(C(Br)=CC=C1)[N+]([O-])=O","-","-","-","3-Bromo-2-nitrotoluene","26.0 - 30.0","?C","301.0","K","","","","","","-","","-","","-","","-"
"NC1=NON=C1N","-","-","-","3,4-Diaminofurazan","178.0 - 183.0","?C","453.5","K","","","","","","-","","-","","-","","-"
"NC(=NO)C(N)=NO","-","-","-","Diaminoglyoxime","200.0 - 204.0","?C","475.0","K","","","","","","-","","-","","-","","-"
"CC(C)(C)OC(=O)CC1CC(CC#N)OC(C)(C)O1","-","-","-","(4R,6R)-tert-Butyl-6-cyanomethyl-2,2-dimethyl-1,3-dioxane-4-acetate","65.0 - 70.0","?C","340.5","K","","","","","","-","","-","","-","","-"
"CC(=O)C1=CC(Cl)=C(N)C(Cl)=C1","-","-","-","4-Amino-3,5-dichloroacetophenone","161.0 - 165.0","?C","436.0","K","","","","","","-","","-","","-","","-"
"NC(=O)C1=C(O)C=CC(=C1)C(=O)CN(CC1=CC=CC=C1)CC1=CC=CC=C1","-","-","-","5-(N,N-Dibenzylglycyl)salicylamide","168.0","?C","441.0","K","","","","","","-","","-","","-","","-"
"COC1=C(C=C(C(=O)C2=CC=CC=C2)C(O)=C1)S(O)(=O)=O","-","-","-","2-Hydroxy-4-methoxybenzophenone-5-sulfonic acid","170.0","?C","443.0","K","","","","","","-","","-","","-","","-"
"NC(=O)CC1(CC(O)=O)CCCCC1","-","-","-","1,1-Cyclohexanediacetic acid monoamide","140.0 - 145.0","?C","415.5","K","","","","","","-","","-","","-","","-"
"OC(=O)C(CSC(C1=CC=CC=C1)(C1=CC=CC=C1)C1=CC=CC=C1)NC(=O)OCC1C2=C(C=CC=C2)C2=C1C=CC=C2","-","-","-","Fmoc-S-trityl-L-Cysteine","172.0 - 177.0","?C","447.5","K","","","","","","-","","-","","-","","-"
"OC(=O)C(CC(=O)NC(C1=CC=CC=C1)(C1=CC=CC=C1)C1=CC=CC=C1)NC(=O)OCC1C2=C(C=CC=C2)C2=C1C=CC=C2","-","-","-","Fmoc-N-trityl-L-Asparagine","205.0","?C","478.0","K","","","","","","-","","-","","-","","-"
"COC1=CC(C)=C2C(=O)C(=COC2=C1)C1=CC=CC=C1","-","-","-","5-Methyl-7-methoxyisoflavone","116.0 - 120.0","?C","391.0","K","","","","","","-","","-","","-","","-"
"COC(=O)NC1=NC2=C(N1)C=C(C=C2)C(=O)C1=CC=CS1","-","-","-","nocodazole","300.0 - 305.0","?C","575.5","K","","","","","","-","","-","","-","","-"
"FC1=CC=C(C=CC(=O)C2=CC=CC=C2)C=C1","-","-","-","4-Fluorochalcone","84.0 - 88.0","?C","359.0","K","","","","","","-","","-","","-","","-"
"CC1=CC=C(C=C1)C(=O)C=CC1=CC=C(F)C=C1","-","-","-","4-Fluoro-4'-methylchalcone","119.0 - 121.0","?C","393.0","K","","","","","","-","","-","","-","","-"
"FC1=CC=C(C=CC(=O)C2=CC=C(F)C=C2)C=C1","-","-","-","4,4'-Difluorochalcone","113.0 - 118.0","?C","388.5","K","","","","","","-","","-","","-","","-"
"FC1=CC=C(C=CC(=O)C=CC2=CC=C(F)C=C2)C=C1","-","-","-","trans,trans-Bis(4-fluorobenzylidene)acetone","141.0 - 146.0","?C","416.5","K","","","","","","-","","-","","-","","-"
"FC1=CC=C(C=C2CCCC(=CC3=CC=C(F)C=C3)C2=O)C=C1","-","-","-","2,6-Bis(4-fluorobenzylidene)cyclohexanone","147.0 - 154.0","?C","423.5","K","","","","","","-","","-","","-","","-"
"CCOC(=O)C1=CC2=C(O1)C=CC(=C2)[N+]([O-])=O","-","-","-","Ethyl 5-nitrobenzofuran-2-carboxylate","150.0 - 155.0","?C","425.5","K","","","","","","-","","-","","-","","-"
"CC(NC(=O)C1=CC=CC=C1)C1=CC=CC=C1","-","-","-","(R)-(+)-N-Benzoyl-alpha-methylbenzylamine","123.0 - 125.0","?C","397.0","K","","","","","","-","","-","","-","","-"
"O=C1NC=CC(=S)N1","-","-","-","4-Thiouracil","295.0","?C","568.0","K","","","","","","-","","-","","-","","-"
"OC(=O)C1CCCCC1NC(=O)C1=CC=CC=C1","-","-","-","(1S,2R)-(+)-2-Benzamidocyclohexane carboxylic acid","204.0 - 208.0","?C","479.0","K","","","","","","-","","-","","-","","-"
"NC1=NC=C(C=C1Br)[N+]([O-])=O","-","-","-","2-Amino-3-bromo-5-nitropyridine","214.0 - 218.0","?C","489.0","K","","","","","","-","","-","","-","","-"
"NC1=C(Br)C=NC=C1","-","-","-","4-AMINO-3-BROMOPYRIDINE","67.0 - 71.0","?C","342.0","K","","","","","","-","","-","","-","","-"
"NC1=CN=C(N)C(Br)=C1","-","-","-","3-Bromo-2,5-diaminopyridine","117.0 - 122.0","?C","392.5","K","","","","","","-","","-","","-","","-"
"NC1=CC(Br)=CN=C1N","-","-","-","2,3-Diamino-5-bromopyridine","160.0 - 165.0","?C","435.5","K","","","","","","-","","-","","-","","-"
"NC1=CC=CN=C1O","-","-","-","3-Amino-2-pyridinol","118.0 - 130.0","?C","397.0","K","","","","","","-","","-","","-","","-"
"CC1=NC(Cl)=C(N)C=C1","-","-","-","5-Amino-6-chloro-2-picoline","88.0 - 91.0","?C","362.5","K","","","","","","-","","-","","-","","-"
"CC1=NC(N)=CC=C1Br","-","-","-","6-Amino-3-bromo-2-picoline","82.0 - 83.0","?C","355.5","K","","","","","","-","","-","","-","","-"
"CC1=NC(N)=CC=C1[N+]([O-])=O","-","-","-","6-Amino-3-nitro-2-picoline","185.0 - 189.0","?C","460.0","K","","","","","","-","","-","","-","","-"
"CC1=NC(N)=C(C=C1)[N+]([O-])=O","-","-","-","6-Amino-5-nitro-2-picoline","146.0 - 150.0","?C","421.0","K","","","","","","-","","-","","-","","-"
"CC1=NC(Cl)=C(C=C1)[N+]([O-])=O","-","-","-","6-Chloro-5-nitro-2-picoline","70.0 - 74.0","?C","345.0","K","","","","","","-","","-","","-","","-"
"CC1=CC(Br)=CN=C1N","-","-","-","2-Amino-5-bromo-3-picoline","92.0 - 94.0","?C","366.0","K","","","","","","-","","-","","-","","-"
"CC1=CC(N)=C(Cl)N=C1","-","-","-","5-Amino-6-chloro-3-picoline","82.0 - 87.0","?C","357.5","K","","","","","","-","","-","","-","","-"
"CC1=CC(Br)=CN=C1Cl","-","-","-","5-Bromo-2-chloro-3-picoline","40.0 - 44.0","?C","315.0","K","","","","","","-","","-","","-","","-"
"CC1=CC(Br)=CNC1=O","-","-","-","5-Bromo-2-hydroxy-3-picoline","171.0 - 175.0","?C","446.0","K","","","","","","-","","-","","-","","-"
"CC1=CC(=CN=C1Cl)[N+]([O-])=O","-","-","-","2-Chloro-5-nitro-3-picoline","78.0 - 80.0","?C","352.0","K","","","","","","-","","-","","-","","-"
"CC1=CC(=CNC1=O)[N+]([O-])=O","-","-","-","2-Hydroxy-5-nitro-3-picoline","230.0 - 234.0","?C","505.0","K","","","","","","-","","-","","-","","-"
"CC1=C(N)C=NC(Cl)=C1","-","-","-","3-Amino-6-chloro-4-picoline","69.0 - 73.0","?C","344.0","K","","","","","","-","","-","","-","","-"
"CC1=CC(=O)NC=C1Br","-","-","-","5-Bromo-2-hydroxy-4-picoline","196.0 - 201.0","?C","471.5","K","","","","","","-","","-","","-","","-"
"C(OC(C1=CC=CC=C1)(C1=CC=CC=C1)C1=CC=CC=C1)C1CO1","-","-","-","(R)-(+)-Trityl glycidyl ether","98.0 - 101.0","?C","372.5","K","","","","","","-","","-","","-","","-"
"OC(=O)C(CC1=C(Br)C=CC=C1)NC(=O)OCC1C2=C(C=CC=C2)C2=C1C=CC=C2","-","-","-","(S)-N-Fmoc-2-Bromophenylalanine","167.8","?C","440.8","K","","","","","","-","","-","","-","","-"
"OC(=O)C(CC1=CC=C(Br)C=C1)NC(=O)OCC1C2=C(C=CC=C2)C2=C1C=CC=C2","-","-","-","(S)-N-Fmoc-4-Bromophenylalanine","151.5","?C","424.5","K","","","","","","-","","-","","-","","-"
"OC(=O)C(CC1=CC=CO1)NC(=O)OCC1C2=C(C=CC=C2)C2=C1C=CC=C2","-","-","-","(S)-N-Fmoc-(2-Furyl)alanine","129.7","?C","402.7","K","","","","","","-","","-","","-","","-"
"FC1=CC(N=C=O)=C2OCOCC2=C1","-","-","-","6-Fluoro-4H-1,3-benzodioxin-8-yl isocyanate","85.0 - 86.0","?C","358.5","K","","","","","","-","","-","","-","","-"
"OCC1=C2OCOCC2=CC(F)=C1","-","-","-","(6-Fluoro-4H-1,3-benzodioxin-8-yl)methanol","73.2 - 73.9","?C","346.6","K","","","","","","-","","-","","-","","-"
"OC(=O)C1=CC=C(S1)C1=NC=CC=C1","-","-","-","5-(2-Pyridyl)thiophene-2-carboxylic acid","231.0 - 233.0","?C","505.0","K","","","","","","-","","-","","-","","-"
"ClC(=O)C1=CC=C(S1)C1=CC=CC=N1","-","-","-","5-(2-Pyridinyl)-2-thiophenecarbonyl chloride","140.0 - 141.0","?C","413.5","K","","","","","","-","","-","","-","","-"
"ClS(=O)(=O)C1=CC=C(S1)C1=NC=CC=C1","-","-","-","5-(2-Pyridyl)thiophene-2-sulfonyl chloride","87.0 - 89.0","?C","361.0","K","","","","","","-","","-","","-","","-"
"O=CC1=CC=C(S1)C1=CC=CC=N1","-","-","-","5-Pyridin-2-ylthiophene-2-carbaldehyde","122.0 - 123.0","?C","395.5","K","","","","","","-","","-","","-","","-"
"BrCC(=O)C1=CC=C(S1)C1=NC=CC=C1","-","-","-","2-Bromo-1-[5-(2-pyridinyl)-2-thienyl]-1-ethanone","123.0 - 126.0","?C","397.5","K","","","","","","-","","-","","-","","-"
"OCC1=CC=C(S1)C1=CC=CC=N1","-","-","-","[5-(2-Pyridinyl)-2-thienyl]methanol","86.0 - 88.0","?C","360.0","K","","","","","","-","","-","","-","","-"
"BrC1=CC=C(S1)C1=NC=CC=C1","-","-","-","2-(5-Bromo-2-thienyl)pyridine","87.0 - 89.0","?C","361.0","K","","","","","","-","","-","","-","","-"
"BrC1=CC=C2N(C=CC2=C1)S(=O)(=O)C1=CC=CC=C1","-","-","-","5-Bromo-1-(phenylsulfonyl)-1H-indole","90.0 - 93.0","?C","364.5","K","","","","","","-","","-","","-","","-"
"OC(=O)C1=CN(C2=C1C=CC=C2)S(=O)(=O)C1=CC=CC=C1","-","-","-","1-(Phenylsulfonyl)-1H-indole-3-carboxylic acid","232.0","?C","505.0","K","","","","","","-","","-","","-","","-"
"ClC(=O)C1=CN(C2=CC=CC=C12)S(=O)(=O)C1=CC=CC=C1","-","-","-","1-(Phenylsulfonyl)-1H-indole-3-carbonyl chloride","144.0","?C","417.0","K","","","","","","-","","-","","-","","-"
"O=CC1=CN(C2=C1C=CC=C2)S(=O)(=O)C1=CC=CC=C1","-","-","-","1-(Phenylsulfonyl)-1H-indole-3-carbaldehyde","156.0 - 157.0","?C","429.5","K","","","","","","-","","-","","-","","-"
"OCC1=CN(C2=C1C=CC=C2)S(=O)(=O)C1=CC=CC=C1","-","-","-","[1-(Phenylsulfonyl)-1H-indol-3-yl]methanol","90.0 - 91.0","?C","363.5","K","","","","","","-","","-","","-","","-"
"BrC1=CN(C2=C1C=CC=C2)S(=O)(=O)C1=CC=CC=C1","-","-","-","3-Bromo-1-(phenylsulfonyl)-1H-indole","120.0 - 121.0","?C","393.5","K","","","","","","-","","-","","-","","-"
"ClC(=O)C1=CC2=C(C=CC=C2)N1S(=O)(=O)C1=CC=CC=C1","-","-","-","1-(Phenylsulfonyl)-1H-indole-2-carbonyl chloride","127.0 - 128.0","?C","400.5","K","","","","","","-","","-","","-","","-"
"O=CC1=CC2=CC=CC=C2N1S(=O)(=O)C1=CC=CC=C1","-","-","-","1-(Phenylsulfonyl)-1H-indole-2-carbaldehyde","111.0 - 112.0","?C","384.5","K","","","","","","-","","-","","-","","-"