"SMILES","CASRN","EXTERNALID","N","NAME","Melting Point","UNIT {Melting Point}","Melting Point {measured, converted}","UNIT {Melting Point}","Dataset","comment (property)","comment (chemical)","measurement method","Pressure","UNIT {Pressure}","Som set numeric condition","UNIT {Som set numeric condition}","Resp set numeric condition","UNIT {Resp set numeric condition}","Quality code","UNIT {Quality code}"
"NC1=CC2=C(C=C1)C1=C(C2)C=C(N)C=C1","-","-","-","2,7-DIAMINOFLUORENE DIHYDROCHLORIDE","260.0 - 310.0","?C","558.0","K","","","","","","-","","-","","-","","-"
"NC(=O)C=CC(N)=O","-","-","-","Fumaramide","276.0","?C","549.0","K","","","","","","-","","-","","-","","-"
"CCCCCCCOC1=CC=C(C=C1)C(O)=O","-","-","-","4-n-Heptyloxybenzoic acid","146.0","?C","419.0","K","","","","","","-","","-","","-","","-"
"OC(=O)C1=CC=C(C=C1)C1=CC=C(O)C=C1","-","-","-","4'-Hydroxy-4-biphenylcarboxylic acid","316.0","?C","589.0","K","","","","","","-","","-","","-","","-"
"CC1=NC2=C(O1)C=C(C)C(C)=C2","-","-","-","2,5,6-Trimethylbenzoxazole","93.5 - 94.0","?C","366.8","K","","","","","","-","","-","","-","","-"
"CC1=CC2=C(NC(=O)C2=O)C(C)=C1","-","-","-","5,7-Dimethylisatin","245.0","?C","518.0","K","","","","","","-","","-","","-","","-"
"ClC1=CC2=C(NC(=O)C2=O)C=C1","-","-","-","5-Chloroisatin","242.0 - 250.0","?C","519.0","K","","","","","","-","","-","","-","","-"
"COC(=O)C1=C(Cl)C(Cl)=CC=C1","-","-","-","Methyl 2,3-dichlorobenzoate","33.0 - 38.0","?C","308.5","K","","","","","","-","","-","","-","","-"
"CC(C)(C)OC(=O)NC(C)(C)C(O)=O","-","-","-","Boc-alpha-methylalanine","117.0 - 121.0","?C","392.0","K","","","","","","-","","-","","-","","-"
"OC(=O)COC1=CC=C(Br)C=C1","-","-","-","4-Bromophenoxyacetic acid","156.0 - 161.0","?C","431.5","K","","","","","","-","","-","","-","","-"
"OC(=O)C1=CC2=C(C(O)=C1)C(=O)C1=C(C=CC=C1O)C2=O","-","-","-","Rhein","321.0 - 322.0","?C","594.5","K","","","","","","-","","-","","-","","-"
"NC1=C(C=C(I)C=C1I)C(O)=O","-","-","-","2-Amino-3,5-diiodobenzoic acid","241.0 - 243.0","?C","515.0","K","","","","","","-","","-","","-","","-"
"COC(=O)C1=C(O)C=CC(=C1)C(C)=O","-","-","-","methyl 5-acetyl-2-hydroxybenzoate","60.0 - 61.0","?C","333.5","K","","","","","","-","","-","","-","","-"
"CC1(C)OCC(CC(N)=O)O1","-","-","-","(S)-2,2-Dimethyl-1,3-dioxolane-4-acetamide","108.0 - 109.0","?C","381.5","K","","","","","","-","","-","","-","","-"
"NC(CO)(CC1=CC=CC=C1)C(O)=O","-","-","-","DL-2-Benzylserine","245.0 - 263.0","?C","527.0","K","","","","","","-","","-","","-","","-"
"CC(CO)(NC(=O)C1=CC=CC=C1)C(O)=O","-","-","-","DL-N-Benzoyl-2-methylserine","153.0 - 159.0","?C","429.0","K","","","","","","-","","-","","-","","-"
"OCC(CC1=CC=CC=C1)(NC(=O)C1=CC=CC=C1)C(O)=O","-","-","-","DL-N-Benzoyl-2-benzylserine","160.0 - 162.0","?C","434.0","K","","","","","","-","","-","","-","","-"
"CC1(COCOC1=O)NC(=O)C1=CC=CC=C1","-","-","-","DL-5-Benzoylamino-5-methyl-4-oxo-1,3-dioxane","154.0 - 159.0","?C","429.5","K","","","","","","-","","-","","-","","-"
"CC(C)C1(COCOC1=O)NC(=O)C1=CC=CC=C1","-","-","-","DL-5-Benzoylamino-5-isopropyl-4-oxo-1,3-dioxane","161.0 - 162.0","?C","434.5","K","","","","","","-","","-","","-","","-"
"CC(C)CC1(COCOC1=O)NC(=O)C1=CC=CC=C1","-","-","-","DL-5-Benzoylamino-5-isobutyl-4-oxo-1,3-dioxane","100.0 - 102.0","?C","374.0","K","","","","","","-","","-","","-","","-"
"O=C(NC1(CC2=CC=CC=C2)COCOC1=O)C1=CC=CC=C1","-","-","-","DL-5-Benzoylamino-5-benzyl-4-oxo-1,3-dioxane","176.0 - 178.0","?C","450.0","K","","","","","","-","","-","","-","","-"
"BrC1=CC2=C(NC(=O)S2)C=C1","-","-","-","6-Bromo-2-benzothiazolinone","228.0 - 232.0","?C","503.0","K","","","","","","-","","-","","-","","-"
"[O-][N+](=O)C1=CC=C(OC(=O)CCl)C=C1","-","-","-","4-Nitrophenyl chloroacetate","73.0 - 75.0","?C","347.0","K","","","","","","-","","-","","-","","-"
"O=C1NC2=C(C=NN2)C(=O)N1","-","-","-","4,6-Dihydroxypyrazolo[3,4-d]pyrimidine","300.0","?C","573.0","K","","","","","","-","","-","","-","","-"
"CC(=O)NC1C(O)C(O)C(CO)OC1OC1=CNC2=C1C(Cl)=C(Br)C=C2","-","-","-","5-Bromo-4-chloro-3-indoxyl-N-acetyl-beta-D-glucosaminide","246.0 - 248.0","?C","520.0","K","","","","","","-","","-","","-","","-"
"CCCCCCCCCCCCCCCC(=O)OC1=CNC2=C1C(Cl)=C(Br)C=C2","-","-","-","5-Bromo-4-chloro-3-indoxyl palmitate","53.0 - 57.0","?C","328.0","K","","","","","","-","","-","","-","","-"
"OCC1=CC(=C(O)C=C1)[N+]([O-])=O","-","-","-","4-Hydroxy-3-nitrobenzyl alcohol","94.0 - 98.0","?C","369.0","K","","","","","","-","","-","","-","","-"
"CC1=CC=C(C=C1)C(=O)OC(C(OC(=O)C1=CC=C(C)C=C1)C(O)=O)C(O)=O","-","-","-","(+)-Di-1,4-toluoyl-D-tartaric acid","165.0 - 167.0","?C","439.0","K","","","","","","-","","-","","-","","-"
"COC1=CC(Br)=C(CO)C=C1OC","-","-","-","2-Bromo-4,5-dimethoxybenzyl alcohol","95.0 - 100.0","?C","370.5","K","","","","","","-","","-","","-","","-"
"COC1=CC=C(C=C1)C(C)(C)C1=CC=C(OC)C=C1","-","-","-","Bisphenol A dimethylether","54.0 - 59.0","?C","329.5","K","","","","","","-","","-","","-","","-"
"ON=C(C1=CC=CC=C1)C1=CC=CC=C1","-","-","-","Benzophenone oxime","140.0 - 144.0","?C","415.0","K","","","","","","-","","-","","-","","-"
"COC1=CC(=NC=C1)C1=CC(OC)=CC=N1","-","-","-","4,4'-Dimethoxy-2,2'-bipyridine","169.0 - 174.0","?C","444.5","K","","","","","","-","","-","","-","","-"
"NCCC(O)C(O)=O","-","-","-","(S)-(-)-4-Amino-2-hydroxybutyric acid","200.0 - 203.0","?C","474.5","K","","","","","","-","","-","","-","","-"
"OC(CCNC(=O)OCC1=CC=CC=C1)C(O)=O","-","-","-","(S)-N-Carbobenzyloxy-4-amino-2-hydroxybutyric acid","72.0 - 78.0","?C","348.0","K","","","","","","-","","-","","-","","-"
"OC(CCN1C(=O)C2=C(C=CC=C2)C1=O)C(O)=O","-","-","-","(2S)-4-(1,3-Dioxoisoindolin-2-yl)-2-hydroxybutanoic acid","157.0 - 159.0","?C","431.0","K","","","","","","-","","-","","-","","-"
"COC1=CC2=C(C=C1OC)C(N)=NC(Cl)=N2","-","-","-","4-Amino-2-chloro-6,7-dimethoxyquinazoline","273.0 - 278.0","?C","548.5","K","","","","","","-","","-","","-","","-"
"COC1=C(OC)C=C2C(=O)NC(=O)NC2=C1","-","-","-","6,7-Dimethoxy-2,4(1H,3H)-quinazolinedione","323.0 - 325.0","?C","597.0","K","","","","","","-","","-","","-","","-"
"CC(=O)OC1=CC2=C(C=C1)C(C)=CC(=O)O2","-","-","-","7-Acetoxy-4-methylcoumarin","152.0 - 156.0","?C","427.0","K","","","","","","-","","-","","-","","-"
"NC1=C(C=C(C=C1Cl)[N+]([O-])=O)C#N","-","-","-","2-Amino-3-chloro-5-nitrobenzonitrile","180.0 - 185.0","?C","455.5","K","","","","","","-","","-","","-","","-"
"CN1C=NC(=C1Cl)[N+]([O-])=O","-","-","-","5-CHLORO-1-METHYL-4-NITROIMIDAZOLE","146.0 - 150.0","?C","421.0","K","","","","","","-","","-","","-","","-"
"OCN1C(=O)C2=C(CCCC2)C1=O","-","-","-","N-Hydroxymethyl-3,4,5,6-tetrahydrophthalimide","80.0 - 84.0","?C","355.0","K","","","","","","-","","-","","-","","-"
"OCC1=C(Br)C(Br)=C(Br)C(Br)=C1Br","-","-","-","2,3,4,5,6-Pentabromobenzyl alcohol","264.0 - 265.0","?C","537.5","K","","","","","","-","","-","","-","","-"
"OC1=C(C=C(C=C1)C#N)[N+]([O-])=O","-","-","-","4-hydroxy-3-nitrobenzonitrile","143.0 - 148.0","?C","418.5","K","","","","","","-","","-","","-","","-"
"OCC1=CC(O)=CC(O)=C1","-","-","-","3,5-Dihydroxybenzyl alcohol","181.0 - 186.0","?C","456.5","K","","","","","","-","","-","","-","","-"
"CC1=C(O)C(Br)=C(Br)C(Br)=C1Br","-","-","-","3,4,5,6-Tetrabromo-o-cresol","209.0 - 213.0","?C","484.0","K","","","","","","-","","-","","-","","-"
"CC(=O)NC1=CC(N)=C(Cl)C=C1","-","-","-","5-Acetylamido-2-chloroaniline","168.0 - 172.0","?C","443.0","K","","","","","","-","","-","","-","","-"
"CC(=O)NC1=CC=CC(N)=C1","-","-","-","3'-Aminoacetanilide","84.0 - 88.0","?C","359.0","K","","","","","","-","","-","","-","","-"
"CCCCCCCCCCCCCCCCOCCOCCOCCOCCOCCOCCOCCOCCOCCOCCOCCOCCOCCOCCOCCOCCOCCOCCOCCOCCO","-","-","-","Brij 58","35.4 - 39.6","?C","310.5","K","","","","","","-","","-","","-","","-"
"OC(=O)CCC(=O)C1=CC=C(Br)C=C1","-","-","-","4-(4-Bromophenyl)-4-oxobutanoic acid","146.0 - 147.0","?C","419.5","K","","","","","","-","","-","","-","","-"
"NC1=CC=C2C=C(C=CC2=C1)C(O)=O","-","-","-","6-Amino-2-naphthoic acid","222.0 - 227.0","?C","497.5","K","","","","","","-","","-","","-","","-"
"CCCCCCCNC(=O)OCC1OC(OC)C(O)C(O)C1O","-","-","-","Methyl-6-O-(N-heptylcarbamoyl)-alpha-D-glucopyranoside","103.0 - 105.0","?C","377.0","K","","","","","","-","","-","","-","","-"
"O=C1C=CC(=O)N1C1=CC(=CC=C1)N1C(=O)C=CC1=O","-","-","-","N,N'-m-Phenylenedimaleimide","198.0 - 204.0","?C","474.0","K","","","","","","-","","-","","-","","-"
"CCCC(N)P(O)(O)=O","-","-","-","(1-Aminobutyl)phosphonic acid","276.0 - 281.0","?C","551.5","K","","","","","","-","","-","","-","","-"
"CCCCC(N)P(O)(O)=O","-","-","-","(1-Aminopentyl)phosphonic acidhydrate","267.0 - 269.0","?C","541.0","K","","","","","","-","","-","","-","","-"
"CCCCCC(N)P(O)(O)=O","-","-","-","(1-Aminohexyl)phosphonic acid","265.0 - 268.0","?C","539.5","K","","","","","","-","","-","","-","","-"
"CC(C)CC(N)P(O)(O)=O","-","-","-","(1-Amino-3-methylbutyl)phosphonic acid","274.0 - 280.0","?C","550.0","K","","","","","","-","","-","","-","","-"
"CCC(C)C(N)P(O)(O)=O","-","-","-","(1-Amino-2-methylbutyl)phosphonic acid","274.0","?C","547.0","K","","","","","","-","","-","","-","","-"
"CCCCCCCC(N)P(O)(O)=O","-","-","-","(1-Aminooctyl)phosphonic acid","269.0 - 270.0","?C","542.5","K","","","","","","-","","-","","-","","-"
"CC(C)(C)C(N)P(O)(O)=O","-","-","-","(1-Amino-2,2-dimethylpropyl)phosphonic acid hydrate","245.0 - 252.0","?C","521.5","K","","","","","","-","","-","","-","","-"
"CC(C)(N)P(O)(O)=O","-","-","-","(1-Amino-1-methylethyl)phosphonic acidhydrate","287.0 - 290.0","?C","561.5","K","","","","","","-","","-","","-","","-"
"CCC(C)(N)P(O)(O)=O","-","-","-","(1-Amino-1-methylpropyl)phosphonic acidhydrate","268.0 - 272.0","?C","543.0","K","","","","","","-","","-","","-","","-"
"CCCC(C)(N)P(O)(O)=O","-","-","-","(1-Amino-1-methylbutyl)phosphonic acidhydrate","258.0 - 262.0","?C","533.0","K","","","","","","-","","-","","-","","-"
"CC(C)C(C)(N)P(O)(O)=O","-","-","-","(1-Amino-1,2-dimethylpropyl)phosphonic acid hydrate","248.0 - 255.0","?C","524.5","K","","","","","","-","","-","","-","","-"
"CC(C)CC(C)(N)P(O)(O)=O","-","-","-","(1-Amino-1,3-dimethylbutyl)phosphonic acidhydrate","234.0 - 238.0","?C","509.0","K","","","","","","-","","-","","-","","-"
"NC1(CCCC1)P(O)(O)=O","-","-","-","(1-Amino-1-cyclopentyl)phosphonic acidhydrate","274.0 - 276.0","?C","548.0","K","","","","","","-","","-","","-","","-"
"NCCCP(O)(O)=O","-","-","-","(3-Aminopropyl)phosphonic acid","290.0 - 294.0","?C","565.0","K","","","","","","-","","-","","-","","-"
"NC(=O)C(=CN1CCOCC1)C#N","-","-","-","2-cyano-3-morpholinoacrylamide","173.0 - 177.0","?C","448.0","K","","","","","","-","","-","","-","","-"
"CC1=CC=C(C#N)C(=C1)C#N","-","-","-","4-Methylphthalonitrile","118.0 - 121.0","?C","392.5","K","","","","","","-","","-","","-","","-"
"CCOC(=O)C1=CNC2=C(F)C(F)=C(F)C=C2C1=O","-","-","-","Ethyl 6,7,8-trifluoro-4-oxohydroquinoline-3-carboxylate","267.0 - 272.0","?C","542.5","K","","","","","","-","","-","","-","","-"
"CCCCCCCCCCCCCC=CC(O)C(CO)NC(C)=O","-","-","-","N-Ethanoyl-D-erythro-sphingosine","93.0 - 96.0","?C","367.5","K","","","","","","-","","-","","-","","-"
"OC(=O)C1(CC1)C(O)=O","-","-","-","1,1-Cyclopropanedicarboxylic acid","134.0 - 138.0","?C","409.0","K","","","","","","-","","-","","-","","-"
"CC(C(O)=O)C1=CC=C(CBr)C=C1","-","-","-","2-(4-Bromomethyl)phenylpropionic acid","123.0 - 128.0","?C","398.5","K","","","","","","-","","-","","-","","-"
"NC1=NSC2=C1C=C(C=C2)[N+]([O-])=O","-","-","-","3-Amino-5-nitrobenzoisothiazole","200.0","?C","473.0","K","","","","","","-","","-","","-","","-"
"OC(=O)C1=C(F)C(F)=C(F)C(F)=C1[N+]([O-])=O","-","-","-","2,3,4,5-Tetrafluoro-6-nitrobenzoic acid","134.0 - 139.0","?C","409.5","K","","","","","","-","","-","","-","","-"
"OC(C(=O)C1=NC=CC=C1)C1=NC=CC=C1","-","-","-","alpha-Pyridoin","151.0 - 158.0","?C","427.5","K","","","","","","-","","-","","-","","-"
"[O-][N+](=O)C1=CC=C(OCCCBr)C=C1","-","-","-","1-(3-Bromopropoxy)-4-nitrobenzene","56.0 - 58.0","?C","330.0","K","","","","","","-","","-","","-","","-"
"COC1=CC(C(O)=O)=C(OC)C(=C1)[N+]([O-])=O","-","-","-","2,5-Dimethoxy-3-nitrobenzoic acid","180.0 - 184.0","?C","455.0","K","","","","","","-","","-","","-","","-"
"CC1=CC2=C(N1)C=CC(N)=C2","-","-","-","5-Amino-2-methylindole","152.0 - 155.0","?C","426.5","K","","","","","","-","","-","","-","","-"
"OC1=CC(O)=C(C=O)C=C1O","-","-","-","2,4,5-trihydroxybenzaldehyde","223.0","?C","496.0","K","","","","","","-","","-","","-","","-"
"COC1=CC(Br)=CC(C=O)=C1O","-","-","-","5-Bromo-2-hydroxy-3-methoxybenzaldehyde","129.0 - 131.0","?C","403.0","K","","","","","","-","","-","","-","","-"
"OC(=O)COC1=CC=C(OCC(O)=O)C=C1","-","-","-","Hydroquinone-O,O'-diacetic acid","248.0 - 251.0","?C","522.5","K","","","","","","-","","-","","-","","-"
"COC(=O)C1=C(NC(C)=O)C=CC=C1","-","-","-","Methyl 2-acetamidobenzoate","97.0 - 101.0","?C","372.0","K","","","","","","-","","-","","-","","-"
"COC1=CC(Br)=C(C=CC(O)=O)C=C1OC","-","-","-","2-Bromo-4,5-dimethoxycinnamic acid","253.0 - 259.0","?C","529.0","K","","","","","","-","","-","","-","","-"
"N#CCCN(CCC#N)C1=CC=CC=C1","-","-","-","N,N-Bis(cyanoethyl)aniline","80.0 - 88.0","?C","357.0","K","","","","","","-","","-","","-","","-"
"NC(C(N)=O)C1=CC=CC=C1","-","-","-","D(-)-Phenylglycinamide","125.0 - 129.0","?C","400.0","K","","","","","","-","","-","","-","","-"
"CC1=C(NC(=O)C(C)(C)C)C=CC=C1","-","-","-","N-Pivaloyl-o-toluidine","111.0 - 115.0","?C","386.0","K","","","","","","-","","-","","-","","-"
"CC(C)(C)C(=O)NC1=C(CC2=CC=CC=C2)C=CC=C1","-","-","-","N-Pivaloyl-o-benzylaniline","86.0 - 90.0","?C","361.0","K","","","","","","-","","-","","-","","-"
"CC(=O)NCO","-","-","-","N-(Hydroxymethyl)acetamide","55.0 - 56.0","?C","328.5","K","","","","","","-","","-","","-","","-"
"CC(O)C(N)C(O)=O","-","-","-","D-Threonine","274.0","?C","547.0","K","","","","","","-","","-","","-","","-"
"CC(=O)NC1=CC=CC2=CC=CC=C12","-","-","-","N-Acetyl-1-aminonaphthalene","156.0 - 160.0","?C","431.0","K","","","","","","-","","-","","-","","-"
"OC1=CC=C(Br)C=C1C=NCCN=CC1=CC(Br)=CC=C1O","-","-","-","N,N'-Bis-(5-bromosalicylidene)ethylenediamine","191.0 - 196.0","?C","466.5","K","","","","","","-","","-","","-","","-"
"COC1=CC(Cl)=NC(N)=N1","-","-","-","2-Amino-4-chloro-6-methoxypyrimidine","169.0 - 176.0","?C","445.5","K","","","","","","-","","-","","-","","-"
"OC1=CC(O)=C(C=O)C(O)=C1","-","-","-","2,4,6-Trihydroxybenzaldehyde","195.0","?C","468.0","K","","","","","","-","","-","","-","","-"
"CC(=O)OC1=CC2=C(C=C1Cl)C1(OC(=O)C3=C1C=CC=C3)C1=CC(Cl)=C(OC(C)=O)C=C1O2","-","-","-","2',7'-Dichlorofluorescein 3',6'-diacetate","239.0 - 246.0","?C","515.5","K","","","","","","-","","-","","-","","-"
"NC1=NC=NC2=C1N=CN2C1OC(CI)C(O)C1O","-","-","-","5'-Iodo-5'-deoxyadenosine","178.0 - 187.0","?C","455.5","K","","","","","","-","","-","","-","","-"
"OCC1OC1C1=CC=CC=C1","-","-","-","(2S,3S)-3-Phenylglycidol","51.0 - 53.0","?C","325.0","K","","","","","","-","","-","","-","","-"
"[O-][N+](=O)C1=NNC=N1","-","-","-","3-Nitro-1,2,4-triazole","212.0 - 214.0","?C","486.0","K","","","","","","-","","-","","-","","-"
"OC1=C2N=C(C=O)C=CC2=CC=C1","-","-","-","8-Hydroxyquinoline-2-carboxaldehyde","96.0 - 100.0","?C","371.0","K","","","","","","-","","-","","-","","-"
"OC1=C2N=C(C=CC2=CC=C1)C#N","-","-","-","8-Hydroxyquinoline-2-carbonitrile","131.0 - 136.0","?C","406.5","K","","","","","","-","","-","","-","","-"
"CN1CCCC1C(O)(C1=CC=CC=C1)C1=CC=CC=C1","-","-","-","(S)-alpha,alpha-Diphenylmethylprolinol","66.0 - 69.0","?C","340.5","K","","","","","","-","","-","","-","","-"
"NN1N=NC2=C1C=CC=C2","-","-","-","1-aminobenzotriazole","81.0 - 85.0","?C","356.0","K","","","","","","-","","-","","-","","-"
"OC1CN(CC2=CC=CC=C2)CC1O","-","-","-","(3R,4R)-(-)-1-Benzyl-3,4-pyrrolidindiol","95.0 - 101.0","?C","371.0","K","","","","","","-","","-","","-","","-"
"CC1=CC(Br)=CC(Br)=C1N","-","-","-","2,4-Dibromo-6-methylaniline","44.0 - 49.0","?C","319.5","K","","","","","","-","","-","","-","","-"
"CC(C)(C)C1=CC(=CC(C=O)=C1)C(C)(C)C","-","-","-","3,5-Bis(tert-butyl)benzaldehyde","82.0 - 87.0","?C","357.5","K","","","","","","-","","-","","-","","-"
"COC1=CC=C(C=C1)C1=CC(=CC(=C1)C1=CC=C(OC)C=C1)C1=CC=C(OC)C=C1","-","-","-","1,3,5-Tris(4-methoxyphenyl)benzene","143.0 - 146.0","?C","417.5","K","","","","","","-","","-","","-","","-"
"OC(=O)C1=CC(C(O)=O)=C(C=C1)C(O)=O","-","-","-","Benzene-1,2,4-tricarboxylic acid","231.0","?C","504.0","K","","","","","","-","","-","","-","","-"
"CCCCCCCCCCCC(=O)OOC(=O)CCCCCCCCCCC","-","-","-","DILAUROYL PEROXIDE","53.0 - 57.0","?C","328.0","K","","","","","","-","","-","","-","","-"
"CC1CC(C)(C)CC(C1)(OOC(C)(C)C)OOC(C)(C)C","-","-","-","1,1-Di-(tert-butylperoxy)-3,3,5-trimethylcyclohexane","-20.0","?C","253.0","K","","","","","","-","","-","","-","","-"
"CC(CC(=O)OOC(C)(C)C)CC(C)(C)C","-","-","-","tert-Butyl peroxy-3,5,5-trimethylhexanoate","-30.0","?C","243.0","K","","","","","","-","","-","","-","","-"
"CCCCC(CC)COC(=O)OOC(C)(C)C","-","-","-","tert-Butylperoxy 2-ethylhexyl carbonate","-50.0","?C","223.0","K","","","","","","-","","-","","-","","-"
"CC(C)(C)OOC(C)(C)C1=CC=CC=C1","-","-","-","tert-Butyl cumyl peroxide","5.0 - 8.0","?C","279.5","K","","","","","","-","","-","","-","","-"
"CC(C)(C1=CC=CC=C1)C(C)(C)C1=CC=CC=C1","-","-","-","2,3-Dimethyl-2,3-diphenylbutane","90.0 - 110.0","?C","373.0","K","","","","","","-","","-","","-","","-"
"NC1=C(Cl)C=C(C=C1[N+]([O-])=O)C(F)(F)F","-","-","-","4-Amino-3-chloro-5-nitrobenzotrifluoride","66.0 - 68.0","?C","340.0","K","","","","","","-","","-","","-","","-"
"NC1=C(C=C(Br)C=C1Br)C#N","-","-","-","2-Amino-3,5-dibromobenzonitrile","152.0 - 156.0","?C","427.0","K","","","","","","-","","-","","-","","-"
"NC1=C(C=C(Cl)C=C1Cl)C#N","-","-","-","2-Amino-3,5-dichlorobenzonitrile","120.0 - 126.0","?C","396.0","K","","","","","","-","","-","","-","","-"
"NC1=C(N)C(Br)=CC(=C1)C(F)(F)F","-","-","-","3-Bromo-4,5-diaminobenzotrifluoride","60.0 - 62.0","?C","334.0","K","","","","","","-","","-","","-","","-"
"NC1=CC(=CC(Cl)=C1N)C(F)(F)F","-","-","-","3-Chloro-4,5-diaminobenzotrifluoride","42.0 - 43.0","?C","315.5","K","","","","","","-","","-","","-","","-"
"COC(=O)C1=CC(Br)=C(N)C=C1","-","-","-","Methyl 4-amino-3-bromobenzoate","104.0 - 108.0","?C","379.0","K","","","","","","-","","-","","-","","-"
"CC1=CC(=CC(Br)=C1N)[N+]([O-])=O","-","-","-","2-bromo-6-methyl-4-nitroaniline","177.0 - 183.0","?C","453.0","K","","","","","","-","","-","","-","","-"
"NC1=C(C=C(Br)C=C1)C#N","-","-","-","2-Amino-5-bromobenzonitrile","93.0 - 98.0","?C","368.5","K","","","","","","-","","-","","-","","-"
"NC1=C(Br)C=C(C=C1)C#N","-","-","-","4-Amino-3-bromobenzonitrile","106.0 - 111.0","?C","381.5","K","","","","","","-","","-","","-","","-"
"NC1=C(Cl)C=C(Cl)C(O)=C1","-","-","-","2,4-Dichloro-5-hydroxyaniline","133.0 - 137.0","?C","408.0","K","","","","","","-","","-","","-","","-"
"NC1=C(N)C=C(C(Cl)=C1)[N+]([O-])=O","-","-","-","4-Chloro-5-nitro-o-phenylenediamine","189.0 - 193.0","?C","464.0","K","","","","","","-","","-","","-","","-"
"OCCC1=C(Cl)C=CC=C1Cl","-","-","-","2,6-Dichlorophenethylalcohol","59.0 - 65.0","?C","335.0","K","","","","","","-","","-","","-","","-"
"C=C[Si](C1=CC=CC=C1)(C1=CC=CC=C1)C1=CC=CC=C1","-","-","-","Triphenylvinylsilane","63.0 - 70.0","?C","339.5","K","","","","","","-","","-","","-","","-"
"CC1=CC=C(NC(N)=O)C=C1","-","-","-","P-TOLYLUREA","178.0 - 181.0","?C","452.5","K","","","","","","-","","-","","-","","-"
"CC1=C(C(O)=O)C(C)=CC(=O)O1","-","-","-","Isodehydroacetic acid","154.0 - 156.0","?C","428.0","K","","","","","","-","","-","","-","","-"
"COC1=CC=C(C=CC=O)C=C1","-","-","-","trans-4-Methoxycinnamaldehyde","55.0 - 60.0","?C","330.5","K","","","","","","-","","-","","-","","-"
"OC1=C(O)C=C(C=C1)C(=O)C1=CC=CC=C1","-","-","-","3,4-Dihydroxybenzophenone","144.0 - 148.0","?C","419.0","K","","","","","","-","","-","","-","","-"
"S1C=CC=C1P(C1=CC=CS1)C1=CC=CS1","-","-","-","Tris(2-thienyl)phosphine","29.0 - 30.0","?C","302.5","K","","","","","","-","","-","","-","","-"