"SMILES","CASRN","EXTERNALID","N","NAME","Melting Point","UNIT {Melting Point}","Melting Point {measured, converted}","UNIT {Melting Point}","Dataset","comment (property)","comment (chemical)","measurement method","Pressure","UNIT {Pressure}","Som set numeric condition","UNIT {Som set numeric condition}","Resp set numeric condition","UNIT {Resp set numeric condition}","Quality code","UNIT {Quality code}"
"COC1=C(OC)C(OC)=C(CC(O)=O)C=C1","-","-","-","2,3,4-Trimethoxyphenylacetic acid","99.0 - 101.0","?C","373.0","K","","","","","","-","","-","","-","","-"
"NC1=NN=C(CC2=CC=CC=C2)N1","-","-","-","3-Amino-5-benzyl-4H-1,2,4-triazole","171.0 - 173.0","?C","445.0","K","","","","","","-","","-","","-","","-"
"NNC(=O)C1=CC=CC(OCC2=CC=CC=C2)=C1","-","-","-","3-Benzyloxybenzhydrazide","113.0 - 115.0","?C","387.0","K","","","","","","-","","-","","-","","-"
"CC1=CC=C(C=C1C)C#N","-","-","-","3,4-Dimethylbenzonitrile","67.0 - 69.0","?C","341.0","K","","","","","","-","","-","","-","","-"
"COC1=CC=C(C=NN=CC2=CC=C(OC)C=C2)C=C1","-","-","-","4-Methoxybenzaldehyde azine","167.0 - 168.0","?C","440.5","K","","","","","","-","","-","","-","","-"
"OC1=C(Cl)C=C(C=C1)C#N","-","-","-","3-Chloro-4-hydroxybenzonitrile","150.0 - 153.0","?C","424.5","K","","","","","","-","","-","","-","","-"
"COC1=CC(=C(C=C1)N=C=S)[N+]([O-])=O","-","-","-","4-Methoxy-2-nitrophenyl isothiocyanate","111.0 - 113.0","?C","385.0","K","","","","","","-","","-","","-","","-"
"CCOC(=O)C1C(C)=NN=C1N","-","-","-","5-Amino-3-methyl-1H-pyrazole-4-carboxylic acidethyl ester","54.0 - 56.0","?C","328.0","K","","","","","","-","","-","","-","","-"
"CCOC(=O)C(C#N)=C(S)NC1=CC=CC=C1","-","-","-","3-Anilino-2-cyano-3-mercaptoacrylic acid ethylester","118.0 - 119.0","?C","391.5","K","","","","","","-","","-","","-","","-"
"OCCCC1=NC2=CC=CC=C2N1","-","-","-","2-(3-Hydroxypropyl)benzimidazole","164.0 - 166.0","?C","438.0","K","","","","","","-","","-","","-","","-"
"OC(=O)C1=CC2=C(C=CN=C2)N=C1C(F)(F)F","-","-","-","2-(Trifluoromethyl)-1,6-napthyridine-3-carboxylicacid","233.0 - 235.0","?C","507.0","K","","","","","","-","","-","","-","","-"
"OC(=O)C1=CC2=C(N=CC=C2)N=C1C(F)(F)F","-","-","-","2-(Trifluoromethyl)-1,8-napthyridine-3-carboxylicacid","309.0 - 310.0","?C","582.5","K","","","","","","-","","-","","-","","-"
"FC(F)(F)C(F)(F)C(F)(F)C(F)(F)C(F)(F)C(F)(F)C(F)(F)COC(=O)C=CC(=O)OCC(F)(F)C(F)(F)C(F)(F)C(F)(F)C(F)(F)C(F)(F)C(F)(F)F","-","-","-","Bis(1H,1H-perfluorooctyl)fumarate","82.0 - 84.0","?C","356.0","K","","","","","","-","","-","","-","","-"
"CC(C)(C)OC(=O)N1CCN(CCC(O)=O)CC1","-","-","-","3-(1-tert-Butoxycarbonylpiperazin-4-yl)propionicacid","138.0 - 139.0","?C","411.5","K","","","","","","-","","-","","-","","-"
"NC(=S)C1=C(N)C=CC=C1","-","-","-","2-Aminothiobenzamide","120.0 - 122.0","?C","394.0","K","","","","","","-","","-","","-","","-"
"BrCCCCCCCCCCN1C(=O)C2=CC=CC=C2C1=O","-","-","-","N-(10-Bromodecyl)phthalimide","58.0 - 60.0","?C","332.0","K","","","","","","-","","-","","-","","-"
"FC1=C(Cl)C(F)=C(Br)C(F)=C1Cl","-","-","-","1-Bromo-3,5-dichloro-2,4,6-trifluorobenzene","58.0 - 59.5","?C","331.8","K","","","","","","-","","-","","-","","-"
"CC(=O)NC1=CC=C(CC#N)C=C1","-","-","-","4-Acetamidophenylacetonitrile","82.0 - 83.0","?C","355.5","K","","","","","","-","","-","","-","","-"
"OC(=O)CCC1=CC=C(Cl)C(Cl)=C1","-","-","-","3-(3,4-Dichlorophenyl)propionic acid","97.0 - 99.0","?C","371.0","K","","","","","","-","","-","","-","","-"
"FC(F)(F)C1=CC=CC=C1N1C=CNC1=S","-","-","-","1-(2-Trifluoromethylphenyl)imidazoline-2-thione","236.0 - 238.0","?C","510.0","K","","","","","","-","","-","","-","","-"
"CC1=CC(=CC=C1)N1C=CNC1=S","-","-","-","1-(m-Tolyl)imidazoline-2-thione","153.0 - 154.0","?C","426.5","K","","","","","","-","","-","","-","","-"
"CCOC(=O)NC1=CC=C(Cl)C=C1","-","-","-","N-(p-Chlorophenyl)urethane","64.0 - 66.0","?C","338.0","K","","","","","","-","","-","","-","","-"
"FC(F)(F)C1=CC=C(NC(=O)CCl)C=C1","-","-","-","N-(Chloroacetyl)-4-(trifluoromethyl)aniline","158.0 - 161.0","?C","432.5","K","","","","","","-","","-","","-","","-"
"FC1=C(F)C(F)=C(I)C(I)=C1F","-","-","-","1,2-Diiodotetrafluorobenzene","49.0 - 50.0","?C","322.5","K","","","","","","-","","-","","-","","-"
"OC(=O)CCN1CCNCC1","-","-","-","3-(Piperazin-1-yl)propionic acid","71.0 - 86.0","?C","351.5","K","","","","","","-","","-","","-","","-"
"CCNC(=S)NC1=CC=CC=C1","-","-","-","1-Ethyl-3-phenyl-2-thiourea","102.0 - 104.0","?C","376.0","K","","","","","","-","","-","","-","","-"
"NC1=CC(=CC=C1N1CCCCC1)C(F)(F)F","-","-","-","N-(2-Amino-4-trifluoromethylphenyl)piperidine","41.0 - 43.0","?C","315.0","K","","","","","","-","","-","","-","","-"
"ClC1=CC=C(C=C1)C(N1CCNCC1)C1=CC=C(Cl)C=C1","-","-","-","1-(4,4'-Dichlorobenzhydryl)piperazine","107.0 - 109.0","?C","381.0","K","","","","","","-","","-","","-","","-"
"NC(=S)C1=C(Cl)C=C(Cl)C=C1","-","-","-","2,4-Dichlorothiobenzamide","135.0 - 136.0","?C","408.5","K","","","","","","-","","-","","-","","-"
"OC(=O)C1=CC=C(N=C1Cl)C(F)(F)F","-","-","-","2-Chloro-6-trifluoromethylnicotinic acid","120.0 - 122.0","?C","394.0","K","","","","","","-","","-","","-","","-"
"CC(=O)C1=CC(Cl)=C(C)C=C1O","-","-","-","5'-Chloro-2'-hydroxy-4'-methylacetophenone","70.0 - 73.0","?C","344.5","K","","","","","","-","","-","","-","","-"
"CCOC(=O)C(Cl)=NNC1=CC=CC=C1","-","-","-","2-Chloro-2-(phenylhydrazono)acetic acid ethylester","77.0 - 80.0","?C","351.5","K","","","","","","-","","-","","-","","-"
"CC(=O)C1=CC(Br)=C(O)C(Br)=C1","-","-","-","3,5-Dibromo-4-hydroxyacetophenone","174.0 - 183.0","?C","451.5","K","","","","","","-","","-","","-","","-"
"OC(C1=CC=CC=C1)C1=CC=C(Br)C=C1","-","-","-","p-Bromobenzhydrol","61.0 - 63.0","?C","335.0","K","","","","","","-","","-","","-","","-"
"FC(F)(F)S(=O)(=O)N1C=CN=C1","-","-","-","1-(Trifluoromethanesulfonyl)imidazole","19.0 - 21.0","?C","293.0","K","","","","","","-","","-","","-","","-"
"OC(=O)CCOC1=CC=C(F)C=C1","-","-","-","3-(4-Fluorophenoxy)propionic acid","84.0 - 86.0","?C","358.0","K","","","","","","-","","-","","-","","-"
"OCC1OC(O)C(F)C(O)C1O","-","-","-","2-Fluoro-2-deoxy-D-glucose","170.0 - 176.0","?C","446.0","K","","","","","","-","","-","","-","","-"
"NC(=S)NC1=CC=CN=C1","-","-","-","1-(3-Pyridyl)-2-thiourea","159.0 - 160.0","?C","432.5","K","","","","","","-","","-","","-","","-"
"ClC1=CC(=CC=C1)N1C=CNC1=S","-","-","-","1-(3-Chlorophenyl)imidazoline-2-thione","161.0 - 163.0","?C","435.0","K","","","","","","-","","-","","-","","-"
"NC(=S)C1=C(Br)C=CC=C1","-","-","-","2-Bromothiobenzamide","83.0 - 85.0","?C","357.0","K","","","","","","-","","-","","-","","-"
"COC1=CC=CC(CC(C)=O)=C1","-","-","-","3-Methoxyphenylacetone","258.0 - 260.0","?C","532.0","K","","","","","","-","","-","","-","","-"
"OC(=O)CC1=C(C=CC=C1)C(F)(F)F","-","-","-","(alpha,alpha,alpha-Trifluoro-o-tolyl)acetic acid","100.0 - 102.0","?C","374.0","K","","","","","","-","","-","","-","","-"
"FC(F)(F)C(F)(F)C(F)(F)C(F)(F)C(F)(F)C(F)(F)C(F)(F)C(F)(F)C(F)(F)C(F)(F)C(F)(F)C(F)(F)F","-","-","-","Perfluorododecane","75.0 - 77.0","?C","349.0","K","","","","","","-","","-","","-","","-"
"CC(=O)C1=C(OCC2=CC=CC=C2)C=CC=C1","-","-","-","2'-Benzyloxyacetophenone","38.0 - 40.0","?C","312.0","K","","","","","","-","","-","","-","","-"
"NC1=C(C=CC=C1C(F)(F)F)C(O)=O","-","-","-","3-Trifluoromethylanthranilic acid","157.0 - 160.0","?C","431.5","K","","","","","","-","","-","","-","","-"
"CC1=CC=C(C=C1)S(=O)(=O)CC(=O)C1=CC=CC=C1","-","-","-","alpha-(4-Toluenesulfonyl)acetophenone","109.0 - 110.0","?C","382.5","K","","","","","","-","","-","","-","","-"
"OC1=CC=C(C=C[N+]([O-])=O)C=C1","-","-","-","4-Hydroxy-alpha-nitrostyrene","165.0 - 166.0","?C","438.5","K","","","","","","-","","-","","-","","-"
"COC1=CC=C(C=C[N+]([O-])=O)C=C1","-","-","-","4-Methoxy-alpha-nitrostyrene","78.0 - 79.0","?C","351.5","K","","","","","","-","","-","","-","","-"
"CCOC(=O)C1=C(N)SC=C1","-","-","-","Ethyl 2-aminothiophene-3-carboxylate","42.0 - 44.0","?C","316.0","K","","","","","","-","","-","","-","","-"
"ClC1=C(I)C=CC(Br)=C1","-","-","-","4-bromo-2-chloro-1-iodobenzene","35.0 - 37.0","?C","309.0","K","","","","","","-","","-","","-","","-"
"FC(F)(F)C1=CC(=C(C=C1C(F)(F)F)C(F)(F)F)C(F)(F)F","-","-","-","1,2,4,5-Tetrakis(trifluoromethyl)benzene","73.0 - 74.0","?C","346.5","K","","","","","","-","","-","","-","","-"
"[O-][N+](=O)C1=CC(=C(C=C1)C#N)C(F)(F)F","-","-","-","2-Cyano-5-nitrobenzotrifluoride","52.0 - 54.0","?C","326.0","K","","","","","","-","","-","","-","","-"
"CC(C)C1=NSC(N)=N1","-","-","-","5-Amino-3-isopropyl-1,2,4-thiadiazole","119.0 - 120.0","?C","392.5","K","","","","","","-","","-","","-","","-"
"NC(CC1=CC=C(F)C=C1F)C(O)=O","-","-","-","dl-2,4-Difluorophenylalanine","224.0 - 226.0","?C","498.0","K","","","","","","-","","-","","-","","-"
"NC(CC1=CC(F)=C(F)C=C1)C(O)=O","-","-","-","dl-3,4-Difluorophenylalanine","237.0 - 240.0","?C","511.5","K","","","","","","-","","-","","-","","-"
"NC(CC1=CC(F)=CC(F)=C1)C(O)=O","-","-","-","dl-3,5-Difluorophenylalanine","243.0 - 245.0","?C","517.0","K","","","","","","-","","-","","-","","-"
"NC(CC1=CC(F)=CC=C1F)C(O)=O","-","-","-","dl-2,5-Difluorophenylalanine","252.0 - 253.0","?C","525.5","K","","","","","","-","","-","","-","","-"
"N1N=NN=C1C1=CC=CN=C1","-","-","-","5-(3-Pyridyl)-1H-tetrazole","240.0 - 242.0","?C","514.0","K","","","","","","-","","-","","-","","-"
"ClC1=CC(=CC(Cl)=N1)C#N","-","-","-","2,6-Dichloroisonicotinonitrile","96.0 - 97.0","?C","369.5","K","","","","","","-","","-","","-","","-"
"NNC(=S)NCCN1CCCCC1","-","-","-","4-(2-Piperidinoethyl)-3-thiosemicarbazide","121.0 - 123.0","?C","395.0","K","","","","","","-","","-","","-","","-"
"OC(=O)C1=C(F)C=CC=C1C(F)(F)F","-","-","-","2-Fluoro-6-(trifluoromethyl)benzoic acid","88.0 - 89.0","?C","361.5","K","","","","","","-","","-","","-","","-"
"NNC(=S)NC1=CC=C(F)C=C1","-","-","-","4-(4-Fluorophenyl)-3-thiosemicarbazide","171.0 - 172.0","?C","444.5","K","","","","","","-","","-","","-","","-"
"ClC(=NNC1=CC=CC=C1)C(=O)NC1=CC=CC=C1","-","-","-","1-(Phenylhydrazone)oxaniloyl chloride","159.0 - 161.0","?C","433.0","K","","","","","","-","","-","","-","","-"
"COC1=C(C=C[N+]([O-])=O)C=CC=C1","-","-","-","2-Methoxy-alpha-nitrostyrene","46.0 - 48.0","?C","320.0","K","","","","","","-","","-","","-","","-"
"OC1=NC=C(C=C1)C(F)(F)F","-","-","-","2-Hydroxy-5-(trifluoromethyl)pyridine","145.0 - 148.0","?C","419.5","K","","","","","","-","","-","","-","","-"
"CCOC(=O)C1=C(N)SSC1=O","-","-","-","5-Amino-3-thioxo-3H-(1,2)dithiole-4-carboxylicacid ethyl ester","183.0 - 184.0","?C","456.5","K","","","","","","-","","-","","-","","-"
"COC1=CC=C(Br)C=C1[N+]([O-])=O","-","-","-","4-Bromo-2-nitroanisole","87.0 - 88.0","?C","360.5","K","","","","","","-","","-","","-","","-"
"CC1=CC=C(C=O)C2=CC=CC=C12","-","-","-","4-Methyl-1-naphthaldehyde","31.0 - 33.0","?C","305.0","K","","","","","","-","","-","","-","","-"
"NNC(=O)C1=C(C=CC=C1)C(F)(F)F","-","-","-","2-(Trifluoromethyl)benzoic acid hydrazide","132.0 - 134.0","?C","406.0","K","","","","","","-","","-","","-","","-"
"NC(=S)NC1=CC=C(C=C1)C#N","-","-","-","1-(4-Cyanophenyl)-2-thiourea","209.0 - 210.0","?C","482.5","K","","","","","","-","","-","","-","","-"
"FC1=CC=C(NC(=O)CCl)C=C1","-","-","-","N-(Chloroacetyl)-4-fluoroaniline","131.0 - 132.0","?C","404.5","K","","","","","","-","","-","","-","","-"
"COC(=O)C1=C(N)C2=CC=CC=C2S1","-","-","-","Methyl 3-aminobenzo[b]thiophene-2-carboxylate","107.0 - 108.0","?C","380.5","K","","","","","","-","","-","","-","","-"
"[O-][N+](=O)C1=CC=CC(=C1)N=C=S","-","-","-","3-Nitrophenyl isothiocyanate","58.0 - 60.0","?C","332.0","K","","","","","","-","","-","","-","","-"
"ClC(Cl)(Cl)C(=O)C1=CC=CN1","-","-","-","2-(Trichloroacetyl)pyrrole","72.0 - 74.0","?C","346.0","K","","","","","","-","","-","","-","","-"
"CSC1=CC=C(I)C=C1","-","-","-","4-Iodothioanisole","40.0 - 42.0","?C","314.0","K","","","","","","-","","-","","-","","-"
"IC1=CC=C(CC2=CC=CC=C2)C=C1","-","-","-","4-Iododiphenylmethane","38.0 - 40.0","?C","312.0","K","","","","","","-","","-","","-","","-"
"CCN(C(Cl)=S)C1=CC=CC=C1","-","-","-","N-Ethyl-N-phenylthiocarbamoyl chloride","56.0 - 58.0","?C","330.0","K","","","","","","-","","-","","-","","-"
"OC(=O)CCC(F)(F)C(F)(F)C(F)(F)F","-","-","-","4,4,5,5,6,6,6-HEPTAFLUOROHEXANOIC ACID","38.0 - 39.0","?C","311.5","K","","","","","","-","","-","","-","","-"
"COC1=CC(OC)=C(NC(N)=S)C=C1","-","-","-","1-(2,4-Dimethoxyphenyl)-2-thiourea","199.0 - 201.0","?C","473.0","K","","","","","","-","","-","","-","","-"
"O=C1OC(=O)C2=C(C=CC=C2)N1CC1=CC=CC=C1","-","-","-","N-Benzylisatoic anhydride","136.0 - 139.0","?C","410.5","K","","","","","","-","","-","","-","","-"
"CC(C)C(=O)NN","-","-","-","Isobutyric acid hydrazide","97.0 - 100.0","?C","371.5","K","","","","","","-","","-","","-","","-"
"NC1=C(N)C=C(F)C=C1","-","-","-","4-Fluoro-o-phenylenediamine","86.0 - 88.0","?C","360.0","K","","","","","","-","","-","","-","","-"
"NC1=CC(=CC(N)=C1)C(F)(F)F","-","-","-","3,5-Diaminobenzotrifluoride","88.0 - 89.0","?C","361.5","K","","","","","","-","","-","","-","","-"
"CC(CC(N)C(O)=O)C(F)(F)F","-","-","-","5,5,5-Trifluoro-dl-leucine","273.0 - 275.0","?C","547.0","K","","","","","","-","","-","","-","","-"
"COC1=CC=C(CNC(N)=S)C=C1","-","-","-","1-(4-Methoxybenzyl)-2-thiourea","135.0 - 137.0","?C","409.0","K","","","","","","-","","-","","-","","-"
"NC(=N)C(F)(F)C(F)(F)C(F)(F)F","-","-","-","Heptafluorobutyrylamidine","49.0 - 51.0","?C","323.0","K","","","","","","-","","-","","-","","-"
"CC1=CC(CCC(O)=O)=CC=C1","-","-","-","3-(3-Methylphenyl)propionic acid","41.0 - 44.0","?C","315.5","K","","","","","","-","","-","","-","","-"
"N#CCC1=C(C=CC=C1)C#N","-","-","-","alpha-Cyano-o-tolunitrile","73.0 - 79.0","?C","349.0","K","","","","","","-","","-","","-","","-"
"NC(=O)C(F)(F)C(F)(F)C(N)=O","-","-","-","Tetrafluorosuccinamide","259.0 - 262.0","?C","533.5","K","","","","","","-","","-","","-","","-"
"OC(=O)C(CCBr)(C1=CC=CC=C1)C1=CC=CC=C1","-","-","-","4-Bromo-2,2-diphenylbutyric acid","135.0 - 137.0","?C","409.0","K","","","","","","-","","-","","-","","-"
"NCC(F)C(O)=O","-","-","-","dl-2-Fluoro-3-alanine","222.0 - 223.0","?C","495.5","K","","","","","","-","","-","","-","","-"
"COC1=CC(CCl)=C(OC)C=C1","-","-","-","2,5-Dimethoxybenzyl chloride","69.0 - 71.0","?C","343.0","K","","","","","","-","","-","","-","","-"
"OCC(I)CC(F)(F)C(F)(F)C(F)(F)C(F)(F)C(F)(F)C(F)(F)F","-","-","-","2-Iodo-1H,1H,2H,3H,3H-perfluorononan-1-ol","45.0 - 46.0","?C","318.5","K","","","","","","-","","-","","-","","-"
"OCC(I)CC(F)(F)C(F)(F)C(F)(F)C(F)(F)C(F)(F)C(F)(F)C(F)(F)C(F)(F)F","-","-","-","2-Iodo-1H,1H,2H,3H,3H-perfluoroundecan-1-ol","54.0 - 55.0","?C","327.5","K","","","","","","-","","-","","-","","-"
"FC1=CC=CC=C1C1=C(F)C=CC=C1","-","-","-","2,2'-Difluorobiphenyl","112.0 - 114.0","?C","386.0","K","","","","","","-","","-","","-","","-"
"NNC(=O)C1CCCCC1","-","-","-","Cyclohexanecarboxylic acid hydrazide","153.0 - 155.0","?C","427.0","K","","","","","","-","","-","","-","","-"
"NNC(=O)C1=CSC=C1","-","-","-","3-Thiophenecarboxylic acid hydrazide","126.0 - 128.0","?C","400.0","K","","","","","","-","","-","","-","","-"
"NNC(=O)C1=CC=C(I)C=C1","-","-","-","4-Iodobenzhydrazide","173.0 - 175.0","?C","447.0","K","","","","","","-","","-","","-","","-"
"CC(=O)NC1=CC(=C(C=C1)[N+]([O-])=O)C(F)(F)F","-","-","-","4-Nitro-3-(trifluoromethyl)acetanilide","108.0 - 109.0","?C","381.5","K","","","","","","-","","-","","-","","-"
"OC(=O)C1=CC=CN=C1F","-","-","-","2-Fluoro-3-pyridinecarboxylic acid(2-Fluoronicotinic acid)","164.0 - 165.0","?C","437.5","K","","","","","","-","","-","","-","","-"
"OC1=C(C=C(C=C1[N+]([O-])=O)C(F)(F)F)[N+]([O-])=O","-","-","-","2,6-Dinitro-4-trifluoromethylphenol","47.0 - 48.0","?C","320.5","K","","","","","","-","","-","","-","","-"
"CC(=O)NC1=C(C=CC(F)=C1)C(O)=O","-","-","-","2-Acetamido-4-fluorobenzoic acid","212.0 - 216.0","?C","487.0","K","","","","","","-","","-","","-","","-"
"OC(=O)CS(=O)(=O)C1=CC=CC=C1","-","-","-","PHENYLSULFONYLACETIC ACID","112.0 - 114.0","?C","386.0","K","","","","","","-","","-","","-","","-"
"FC1=CC=C(C=C1)C1=CC=C(Br)C=C1","-","-","-","4-Bromo-4'-fluorobiphenyl","95.0 - 96.0","?C","368.5","K","","","","","","-","","-","","-","","-"
"O=C(CN1CCNCC1)N1CCCC1","-","-","-","1-[2-(Piperazin)-1-yl)acetyl]pyrrolidine","75.0 - 76.0","?C","348.5","K","","","","","","-","","-","","-","","-"
"O=C(CN1CCNCC1)N1CCOCC1","-","-","-","4-[2-(Piperazin-1-yl)-acetyl]morpholine","63.0 - 65.0","?C","337.0","K","","","","","","-","","-","","-","","-"
"NC(=NO)C1=CC=CC(=C1)C(F)(F)F","-","-","-","3-(Trifluoromethyl)benzamidoxime","82.0 - 88.0","?C","358.0","K","","","","","","-","","-","","-","","-"
"ClC1=CC=CC(COC2=C(C=O)C=CC=C2)=C1","-","-","-","2-(3-Chlorobenzyloxy)benzaldehyde","38.0 - 41.0","?C","312.5","K","","","","","","-","","-","","-","","-"
"CC(C)(C)NC(=S)NC(C)(C)C","-","-","-","1,3-Di-tert-butyl-2-thiourea","168.0 - 171.0","?C","442.5","K","","","","","","-","","-","","-","","-"
"OC1=C(C=C(Br)C=C1)C#N","-","-","-","5-Bromo-2-hydroxybenzonitrile","160.0 - 162.0","?C","434.0","K","","","","","","-","","-","","-","","-"
"NNC1=C(F)C=C(F)C=C1","-","-","-","1-(2,4-Difluorophenyl)hydrazine","65.0 - 67.0","?C","339.0","K","","","","","","-","","-","","-","","-"
"COC1=C(Br)C=C(C=C1Br)C(O)=O","-","-","-","3,5-Dibromo-4-methoxybenzoic acid","224.0 - 226.0","?C","498.0","K","","","","","","-","","-","","-","","-"
"CS(=O)(=O)N1C=CN=C1","-","-","-","N-Methanesulfonylimidazole","86.0 - 88.0","?C","360.0","K","","","","","","-","","-","","-","","-"
"CNC(=O)C1=CC=CC=C1N","-","-","-","2-Amino-N-methylbenzamide","75.0 - 76.0","?C","348.5","K","","","","","","-","","-","","-","","-"
"NC(=S)NC1=CC=CC(Cl)=C1Cl","-","-","-","1-(2,3-Dichlorophenyl)-2-thiourea","160.0 - 162.0","?C","434.0","K","","","","","","-","","-","","-","","-"
"OC(=O)CCC1=CC=CC(Br)=C1","-","-","-","3-(3-Bromophenyl)propionic acid","76.0 - 78.0","?C","350.0","K","","","","","","-","","-","","-","","-"
"COC1=C(OC)C=C(C=C[N+]([O-])=O)C=C1","-","-","-","3,4-Dimethoxy-alpha-nitrostyrene","140.0 - 142.0","?C","414.0","K","","","","","","-","","-","","-","","-"
"OC(=O)C(F)=C","-","-","-","2-FLUOROACRYLIC ACID","51.5 - 52.0","?C","324.8","K","","","","","","-","","-","","-","","-"
"NNC(=O)C1=CC=CC=C1OC1=CC=CC=C1","-","-","-","2-Phenoxybenzhydrazide","99.0 - 103.0","?C","374.0","K","","","","","","-","","-","","-","","-"
"OC(=O)C(O)(C1CCCCC1)C1=CC=CC=C1","-","-","-","Cyclohexylmandelic acid","163.0 - 164.0","?C","436.5","K","","","","","","-","","-","","-","","-"
"O=S(=O)(C1=CC=C(C=C1)N=C=S)C1=CC=C(C=C1)N=C=S","-","-","-","Isothiocyanatophenyl sulfone","187.0 - 189.0","?C","461.0","K","","","","","","-","","-","","-","","-"
"COC1=C(C)C=C(CC(O)=O)C=C1","-","-","-","4-Methoxy-3-methylphenylacetic acid","93.0 - 95.0","?C","367.0","K","","","","","","-","","-","","-","","-"
"CC1=C(F)C=CC(N)=C1","-","-","-","4-Fluoro-3-methylaniline","35.0 - 37.0","?C","309.0","K","","","","","","-","","-","","-","","-"
"OC(=O)CC1=CC(F)=C(O)C=C1","-","-","-","3-fluoro-4-hydroxyphenylacetic acid","132.0 - 134.0","?C","406.0","K","","","","","","-","","-","","-","","-"
"BrC1=CC=C2NC(=O)OC(=O)C2=C1","-","-","-","5-Bromoisatoic anhydride","285.0 - 290.0","?C","560.5","K","","","","","","-","","-","","-","","-"
"COC1=C(OC)C=C(CC(O)=O)C(Br)=C1","-","-","-","2-Bromo-4,5-dimethoxyphenylacetic acid","94.0 - 96.0","?C","368.0","K","","","","","","-","","-","","-","","-"
"COC1=C(Cl)C=C(C=C1)[N+]([O-])=O","-","-","-","2-Chloro-4-nitroanisole","94.0 - 96.0","?C","368.0","K","","","","","","-","","-","","-","","-"
"O=C(NC(=S)NC1=CC=CC=C1)C1=CC=CC=C1","-","-","-","1-Benzoyl-3-phenyl-2-thiourea","159.0 - 161.0","?C","433.0","K","","","","","","-","","-","","-","","-"
"O=C(NC(=S)NC1=CC=CC=N1)C1=CC=CC=C1","-","-","-","1-Benzoyl-3-(2-pyridyl)-2-thiourea","144.0 - 147.0","?C","418.5","K","","","","","","-","","-","","-","","-"
"NC(=S)CNC(=O)OCC1=CC=CC=C1","-","-","-","N-Benzyloxycarbonylglycine thioamide","144.0 - 146.0","?C","418.0","K","","","","","","-","","-","","-","","-"