"SMILES","CASRN","EXTERNALID","N","NAME","Melting Point","UNIT {Melting Point}","Melting Point {measured, converted}","UNIT {Melting Point}","Dataset","comment (property)","comment (chemical)","measurement method","Pressure","UNIT {Pressure}","Som set numeric condition","UNIT {Som set numeric condition}","Resp set numeric condition","UNIT {Resp set numeric condition}","Quality code","UNIT {Quality code}"
"OC(=O)C1=C2C(CC3=C2C=CC(I)=C3)=CC=C1","-","-","-","7-Iodo-9H-fluorene-4-carboxylic acid","265.0 - 267.0","?C","539.0","K","","","","","","-","","-","","-","","-"
"[O-][N+](=O)C1=CC=C(O1)C1=NN=C(S)S1","-","-","-","5-(5-nitro-2-furyl)-1,3,4-thiadiazole-2-thiol","175.0 - 177.0","?C","449.0","K","","","","","","-","","-","","-","","-"
"O=C=NC1=CC=CC=C1C#N","-","-","-","2-Isocyanatobenzonitrile","61.0 - 62.0","?C","334.5","K","","","","","","-","","-","","-","","-"
"O=C1OC(=O)C2CCC12","-","-","-","Perhydrocyclobuta[c]furan-1,3-dione","73.0 - 76.0","?C","347.5","K","","","","","","-","","-","","-","","-"
"CCCC(CCC)C(C(O)=O)C(=O)OCC","-","-","-","2-(Ethoxycarbonyl)-3-propylhexanoic acid","30.0 - 34.0","?C","305.0","K","","","","","","-","","-","","-","","-"
"CC(C)NC(=O)C(Br)C(C)(C)C","-","-","-","N1-Isopropyl-2-bromo-3,3-dimethylbutanamide","128.0 - 130.0","?C","402.0","K","","","","","","-","","-","","-","","-"
"COC1=CC(I)=C(OC)C=C1I","-","-","-","1,4-Diiodo-2,5-dimethoxybenzene","171.0 - 173.0","?C","445.0","K","","","","","","-","","-","","-","","-"
"ClC1=CCS(=O)(=O)C1","-","-","-","3-Chloro-2,5-dihydro-1H-1lambda6-thiophene-1,1-dione","90.0 - 92.0","?C","364.0","K","","","","","","-","","-","","-","","-"
"CCC1CC(C)C2=CC=C(C)C=C2N1CCO","-","-","-","2-(2,2,4,7-Tetramethyl-1,2,3,4-tetrahydroquinolin-1-yl)ethan-1-ol","97.0 - 101.0","?C","372.0","K","","","","","","-","","-","","-","","-"
"CC(C)C(NC(=O)C(C)(C)Br)C(C)C","-","-","-","N1-(1-Isopropyl-2-methylpropyl)-2-bromo-2-methylpropanamide","80.0 - 82.0","?C","354.0","K","","","","","","-","","-","","-","","-"
"OC(=O)C=CC(=O)C=CC(O)=O","-","-","-","4-Oxohepta-2,5-dienedioic acid","300.0","?C","573.0","K","","","","","","-","","-","","-","","-"
"BrC1(C(=O)C2=CC=CC=C2C1=O)C1=CC=CC=C1","-","-","-","2-Bromo-2-phenylindane-1,3-dione","106.0 - 107.0","?C","379.5","K","","","","","","-","","-","","-","","-"
"CC12CCC(O)(CC1)CC2=O","-","-","-","4-Hydroxy-1-methylbicyclo[2.2.2]octan-2-one","55.0 - 56.0","?C","328.5","K","","","","","","-","","-","","-","","-"
"CCN(CC)C1=C(C2=NON=C2C(Cl)=C1)[N+]([O-])=O","-","-","-","7-Chloro-N,N-diethyl-4-nitro-2,1,3-benzoxadiazol-5-amine","132.0 - 135.0","?C","406.5","K","","","","","","-","","-","","-","","-"
"[O-][N+](=O)C1=C(C=C(Cl)C2=NON=C12)N1CCCCC1","-","-","-","7-Chloro-4-nitro-5-piperidino-2,1,3-benzoxadiazole","159.0 - 161.0","?C","433.0","K","","","","","","-","","-","","-","","-"
"NC1=C(C2=NON=C2C(Cl)=C1)[N+]([O-])=O","-","-","-","7-Chloro-4-nitro-2,1,3-benzoxadiazol-5-amine","276.0 - 277.0","?C","549.5","K","","","","","","-","","-","","-","","-"
"[O-][N+](=O)C1=C(NCC2=CC=CC=C2)C=C(Cl)C2=NON=C12","-","-","-","N-Benzyl-4-nitro-2,1,3-benzoxadiazol-5-amine","136.0 - 138.0","?C","410.0","K","","","","","","-","","-","","-","","-"
"CC1(C)N(O)C(C2=CC=CC=C2)[N+]([O-])=C1N","-","-","-","4-Amino-1-hydroxy-5,5-dimethyl-2-phenyl-2,5-dihydro-1H-imidazol-3-ium-3-olate","208.0 - 210.0","?C","482.0","K","","","","","","-","","-","","-","","-"
"IC1=CC=C(C=C1)N=C=S","-","-","-","4-Iodophenyl isothiocyanate","76.0 - 78.0","?C","350.0","K","","","","","","-","","-","","-","","-"
"NC(=NO)C1=CC=CN=C1","-","-","-","N'-Hydroxypyridine-3-carboximidamide","130.0 - 131.0","?C","403.5","K","","","","","","-","","-","","-","","-"
"CC1=CC=C(NC(=O)C=CC(O)=O)C=C1","-","-","-","4-Oxo-4-(4-toluidino)but-2-enoic acid","205.0","?C","478.0","K","","","","","","-","","-","","-","","-"
"OC(=O)C=CC(=O)NC1=CC=C(Cl)C=C1","-","-","-","4-(4-Chloroanilino)-4-oxobut-2-enoic acid","200.0 - 203.0","?C","474.5","K","","","","","","-","","-","","-","","-"
"OC(=O)C=CC(=O)NC1=CC=CC2=CC=CC=C12","-","-","-","4-(1-Naphthylamino)-4-oxobut-2-enoic acid","150.0 - 153.0","?C","424.5","K","","","","","","-","","-","","-","","-"
"CC1=CC=CC(C)=C1NC(=O)C=CC(O)=O","-","-","-","4-(2,6-Dimethylanilino)-4-oxobut-2-enoic acid","169.0","?C","442.0","K","","","","","","-","","-","","-","","-"
"COC1=CC(=CC=C1)N1C(=O)C=CC1=O","-","-","-","1-(3-Methoxyphenyl)-2,5-dihydro-1H-pyrrole-2,5-dione","62.0 - 66.0","?C","337.0","K","","","","","","-","","-","","-","","-"