"SMILES","CASRN","EXTERNALID","N","NAME","Melting Point","UNIT {Melting Point}","Melting Point {measured, converted}","UNIT {Melting Point}","Dataset","comment (property)","comment (chemical)","measurement method","Pressure","UNIT {Pressure}","Som set numeric condition","UNIT {Som set numeric condition}","Resp set numeric condition","UNIT {Resp set numeric condition}","Quality code","UNIT {Quality code}"
"IC1=CC=C(OC2CCOCC2)C=C1","-","-","-","4-(4-Iodophenoxy)tetrahydropyran","88.5 - 89.5","?C","362.0","K","","","","","","-","","-","","-","","-"
"NCC1=CC=C(OC2CCOCC2)C=C1","-","-","-","[4-(Tetrahydropyran-4-yloxy)phenyl]methylamine","41.5 - 43.5","?C","315.5","K","","","","","","-","","-","","-","","-"
"OCC1=CC=C(C=C1)C1=NC=CC=N1","-","-","-","(4-pyrimidin-2-ylphenyl)methanol","76.5 - 77.5","?C","350.0","K","","","","","","-","","-","","-","","-"
"ClCC1=CC(=CC=C1)C1=NC=CC=N1","-","-","-","2-[3-(Chloromethyl)phenyl]pyrimidine","68.0 - 70.0","?C","342.0","K","","","","","","-","","-","","-","","-"
"CCCCNC(=O)CC#N","-","-","-","N1-Butyl-2-cyanoacetamide","54.0 - 55.0","?C","327.5","K","","","","","","-","","-","","-","","-"
"CN1C(=O)CSC1=S","-","-","-","3-Methyl-2-thioxo-1,3-thiazolan-4-one","72.0 - 73.0","?C","345.5","K","","","","","","-","","-","","-","","-"
"CC(C)NC(=O)C1=CC(F)=C(Cl)N=C1Cl","-","-","-","2,6-Dichloro-5-fluoro-N-isopropylnicotinamide","159.0 - 161.0","?C","433.0","K","","","","","","-","","-","","-","","-"
"CN(C)CCCOC1=C(CO)C=CC=C1","-","-","-","{2-[3-(Dimethylamino)propoxy]phenyl}methanol","55.0 - 57.0","?C","329.0","K","","","","","","-","","-","","-","","-"
"CC1=NC=CN1C1=C(C=CC=C1)C(O)=O","-","-","-","2-(2-Methyl-1H-imidazol-1-yl)benzoic acid","232.1 - 233.8","?C","505.9","K","","","","","","-","","-","","-","","-"
"CN1CCOC2=C1N=CC(=C2)C(O)=O","-","-","-","4-Methyl-3,4-dihydro-2H-pyrido[3,2-b][1,4]oxazine-7-carboxylic acid","231.5 - 280.0","?C","528.8","K","","","","","","-","","-","","-","","-"
"CN1C(=O)CC2=C1C=CC(=C2)S(Cl)(=O)=O","-","-","-","1-Methyl-2-oxo-5-indolinesulfonyl chloride","154.0 - 158.0","?C","429.0","K","","","","","","-","","-","","-","","-"
"CCOC(=O)C1CCN(CC1)C1=NC=NC2=C1SC=C2","-","-","-","Ethyl 1-thieno[3,2-d]pyrimidin-4-ylpiperidine-4-carboxylate","64.0 - 66.0","?C","338.0","K","","","","","","-","","-","","-","","-"
"CC(C)(Br)C(=O)NC12CC3CC(CC(C3)C1)C2","-","-","-","N1-(1-Adamantyl)-2-bromo-2-methylpropanamide","114.0 - 115.0","?C","387.5","K","","","","","","-","","-","","-","","-"
"S=C(OC1=CC=CC=N1)OC1=NC=CC=C1","-","-","-","Di-2-pyridyl thionocarbonate","96.0 - 99.0","?C","370.5","K","","","","","","-","","-","","-","","-"
"CON(C)C(=O)C=P(C1=CC=CC=C1)(C1=CC=CC=C1)C1=CC=CC=C1","-","-","-","N-Methoxy-N-methyl-2-(triphenylphosphoranylidene)acetamide","183.0","?C","456.0","K","","","","","","-","","-","","-","","-"
"NNC1=NC2=C(C(N)=NN2)C(=N1)C1=CC=CC=C1","-","-","-","6-Hydrazino-4-phenyl-1H-pyrazolo[3,4-d]pyrimidin-3-amine","241.0 - 244.0","?C","515.5","K","","","","","","-","","-","","-","","-"
"CC1=NC(OC2=CC=CC(Br)=C2)=CN=C1","-","-","-","2-(3-bromophenoxy)-6-methylpyrazine","38.0 - 39.5","?C","311.8","K","","","","","","-","","-","","-","","-"
"COC1=CC=C(C=C1)C(O)C(O)=O","-","-","-","4-Methoxymandelic acid","108.0 - 111.0","?C","382.5","K","","","","","","-","","-","","-","","-"
"CN1C=CC(=N1)C1=CC=C(Br)C=C1","-","-","-","3-(4-Bromophenyl)-1-methyl-1H-pyrazole","79.5 - 81.0","?C","353.2","K","","","","","","-","","-","","-","","-"
"CC(=O)C1=CC=C(C=C1)C#C","-","-","-","4'-Ethynylacetophenone","68.0 - 70.0","?C","342.0","K","","","","","","-","","-","","-","","-"
"CN1C=CC(=N1)C1=CC=C(C=C1)C(O)=O","-","-","-","4-(1-Methyl-1H-pyrazol-3-yl)benzoic acid","240.0 - 242.0","?C","514.0","K","","","","","","-","","-","","-","","-"
"FC1=C(F)C(F)=C(OC(=O)C2=CC(=CC=C2)C2=NC=CS2)C(F)=C1F","-","-","-","Pentafluorophenyl 3-(1,3-thiazol-2-yl)benzoate","68.5 - 69.5","?C","342.0","K","","","","","","-","","-","","-","","-"
"CN1CCN(C)C2=CC(=CC=C12)C#N","-","-","-","1,4-Dimethyl-1,2,3,4-tetrahydroquinoxaline-6-carbonitrile","80.0 - 82.0","?C","354.0","K","","","","","","-","","-","","-","","-"
"CN1C=CC2=C1C=CC(=C2)N=C=O","-","-","-","5-Isocyanato-1-methyl-1H-indole","42.5 - 44.5","?C","316.5","K","","","","","","-","","-","","-","","-"
"FC1=C(F)C(F)=C(OC(=O)C2=C(OC3CCOCC3)C=CC=C2)C(F)=C1F","-","-","-","Pentafluorophenyl 2-(tetrahydro-2H-pyran-4-yloxy)benzoate","62.0 - 64.0","?C","336.0","K","","","","","","-","","-","","-","","-"
"N#CC1=NC=C(C=C1)N1CCCC1","-","-","-","5-Pyrrolidin-1-ylpyridine-2-carbonitrile","106.0 - 108.5","?C","380.2","K","","","","","","-","","-","","-","","-"
"ClC1=NC=CC(=C1)C(=O)CBr","-","-","-","2-Bromo-1-(2-chloropyridin-4-yl)ethanone","55.0 - 56.5","?C","328.8","K","","","","","","-","","-","","-","","-"
"CNCC1=CC=C(C=C1)C1=NC=CC=N1","-","-","-","n-methyl-4-pyrimidin-2-ylbenzylamine","49.5 - 54.9","?C","325.2","K","","","","","","-","","-","","-","","-"
"OC(=O)C1=CC=C(OC2CCOCC2)N=C1","-","-","-","6-(tetrahydropyran-4-yloxy)nicotinic acid","168.0 - 170.5","?C","442.2","K","","","","","","-","","-","","-","","-"
"N#CC1=CC=C(OC2CCOCC2)N=C1","-","-","-","6-(tetrahydropyran-4-yloxy)nicotinonitrile","134.0 - 135.0","?C","407.5","K","","","","","","-","","-","","-","","-"
"CC1=NC=CN1C1=CC=C(N)C=C1","-","-","-","4-(2-methyl-1h-imidazol-1-yl)aniline","111.5 - 113.0","?C","385.2","K","","","","","","-","","-","","-","","-"
"CC1=NC(OC2=CC=C(Br)C=C2)=CN=C1","-","-","-","2-(4-bromophenoxy)-6-methylpyrazine","58.5 - 60.0","?C","332.2","K","","","","","","-","","-","","-","","-"
"CCOC(=O)C1=CSC(=N1)N1CCOCC1","-","-","-","ethyl 2-morpholino-1,3-thiazole-4-carboxylate","88.5 - 90.0","?C","362.2","K","","","","","","-","","-","","-","","-"
"CN1C=C(Br)C(CCl)=N1","-","-","-","4-bromo-3-(chloromethyl)-1-methyl-1h-pyrazole","76.5 - 78.5","?C","350.5","K","","","","","","-","","-","","-","","-"
"OC(=O)C1=C(Cl)C2=C(SC=C2)S1","-","-","-","3-chlorothieno[2,3-b]thiophene-2-carboxylic acid","251.5 - 257.5","?C","527.5","K","","","","","","-","","-","","-","","-"
"CN1C=CC(=N1)C1=CC=C(N)C=C1","-","-","-","4-(1-methyl-1h-pyrazol-3-yl)aniline","125.0 - 132.5","?C","401.8","K","","","","","","-","","-","","-","","-"
"O=C=NC1=CC(=CC=C1)C1=NC=CC=N1","-","-","-","2-(3-Isocyanatophenyl)pyrimidine","45.0 - 47.0","?C","319.0","K","","","","","","-","","-","","-","","-"
"ClCC(=O)NNC(=O)C1=CC=CC=C1","-","-","-","N'-(2-Chloroacetyl)benzohydrazide","163.0 - 166.0","?C","437.5","K","","","","","","-","","-","","-","","-"
"O=C1NC2CC=CCC12","-","-","-","1,2,2a,3,6,6a-Hexahydro-1-benzazet-2-one","121.5 - 122.5","?C","395.0","K","","","","","","-","","-","","-","","-"
"FC1=C(F)C(F)=C(OC(=O)C2=CN=CN=C2)C(F)=C1F","-","-","-","pentafluorophenyl pyrimidine-5-carboxylate","121.0 - 123.5","?C","395.2","K","","","","","","-","","-","","-","","-"
"O=CC1=CC=CC2=C1SC=C2","-","-","-","1-benzothiophene-7-carbaldehyde","42.0 - 43.5","?C","315.8","K","","","","","","-","","-","","-","","-"
"CN1N=C(C)C(Br)=C1NC(=O)CCl","-","-","-","N1-(4-Bromo-1,3-dimethyl-1H-5-pyrazolyl)-2-chloroacetamide","151.0 - 153.0","?C","425.0","K","","","","","","-","","-","","-","","-"
"COC(=O)C1=CC=CN1","-","-","-","Methyl 1H-pyrrole-2-carboxylate","73.0 - 75.0","?C","347.0","K","","","","","","-","","-","","-","","-"
"CC(=O)OC1=C(C)C(C)=C(O)C=C1C","-","-","-","4-Hydroxy-2,3,6-trimethylphenyl acetate","107.5 - 109.0","?C","381.2","K","","","","","","-","","-","","-","","-"
"CN1C=CC(=N1)C1=CC=C(C=C1)C(=O)OC1=C(F)C(F)=C(F)C(F)=C1F","-","-","-","Pentafluorophenyl 4-(1-methyl-1H-pyrazol-3-yl)benzoate","122.5 - 124.0","?C","396.2","K","","","","","","-","","-","","-","","-"
"BrCC1=CC=C(OC2CCOCC2)C=C1","-","-","-","4-[4-(Bromomethyl)phenoxy]tetrahydropyran","56.0 - 58.0","?C","330.0","K","","","","","","-","","-","","-","","-"
"O=C=NC1=CC=C(C=C1)C1=NC=CC=N1","-","-","-","2-(4-Isocyanatophenyl)pyrimidine","85.5 - 87.5","?C","359.5","K","","","","","","-","","-","","-","","-"
"ClCC1=CC=C(C=C1)C1=NC=CC=N1","-","-","-","2-[4-(Chloromethyl)phenyl]pyrimidine","83.0 - 84.5","?C","356.8","K","","","","","","-","","-","","-","","-"
"CN1C(=O)CC2=C1C=CC(N)=C2","-","-","-","5-Amino-1-methyl-2-oxoindoline","109.0 - 111.5","?C","383.2","K","","","","","","-","","-","","-","","-"
"ClCC1CCN(CC1)C1=NC=NC2=C1SC=C2","-","-","-","4-[4-(Chloromethyl)piperidino]thieno[3,2-d]pyrimidine","99.0 - 100.5","?C","372.8","K","","","","","","-","","-","","-","","-"
"FC1=C(F)C(F)=C(OC(=O)C2CCN(CC2)C2=NC=NC3=C2SC=C3)C(F)=C1F","-","-","-","Pentafluorophenyl 1-thieno[3,2-d]pyrimidin-4-ylpiperidine-4-carboxylate","99.0 - 104.5","?C","374.8","K","","","","","","-","","-","","-","","-"
"OC(=O)C1=CC(NC(=O)OCC2C3=C(C=CC=C3)C3=C2C=CC=C3)=CC(O)=C1","-","-","-","3-{[(9H-Fluoren-9-ylmethoxy)carbonyl]amino}-5-hydroxybenzoic acid","234.0 - 236.5","?C","508.2","K","","","","","","-","","-","","-","","-"
"ClS(=O)(=O)C1=C(Br)C=CS1","-","-","-","3-bromothiophene-2-sulfonyl chloride","39.0 - 41.5","?C","313.2","K","","","","","","-","","-","","-","","-"
"OC(=O)C1=CC(NC(=O)OCC=C)=CC(O)=C1","-","-","-","3-{[(allyloxy)carbonyl]amino}-5-hydroxybenzoic acid","194.5 - 197.0","?C","468.8","K","","","","","","-","","-","","-","","-"
"CC1=NOC(=N1)C1=CC=CC=C1C=O","-","-","-","2-(3-methyl-1,2,4-oxadiazol-5-yl)benzaldehyde","66.0 - 68.0","?C","340.0","K","","","","","","-","","-","","-","","-"
"O=C=NC1=CC=C(OC2CCOCC2)N=C1","-","-","-","5-isocyanato-2-(tetrahydropyran-4-yloxy)pyridine","68.5 - 70.5","?C","342.5","K","","","","","","-","","-","","-","","-"
"CC(=NO)C1=NC=CC=C1","-","-","-","1-Pyridin-2-ylethan-1-one oxime","117.0 - 119.0","?C","391.0","K","","","","","","-","","-","","-","","-"
"CC(=NO)C1=CN=CC=C1","-","-","-","1-(3-Pyridyl)ethan-1-one oxime","103.0 - 105.0","?C","377.0","K","","","","","","-","","-","","-","","-"
"FC1=C(F)C(F)=C(OC(=O)C2=CC=C(OC3CCOCC3)N=C2)C(F)=C1F","-","-","-","pentafluorophenyl 6-(tetrahydropyran-4-yloxy)nicotinate","114.5 - 118.0","?C","389.2","K","","","","","","-","","-","","-","","-"
"OC(=O)C1=CC=CC2=C1SC=C2","-","-","-","1-benzothiophene-7-carboxylic acid","176.5 - 178.5","?C","450.5","K","","","","","","-","","-","","-","","-"
"ClC(=O)C1=CC=CC2=C1SC=C2","-","-","-","1-benzothiophene-7-carbonyl chloride","84.0 - 86.0","?C","358.0","K","","","","","","-","","-","","-","","-"
"N#CC1=CC=CC2=C1SC=C2","-","-","-","1-benzothiophene-7-carbonitrile","67.5 - 72.5","?C","343.0","K","","","","","","-","","-","","-","","-"
"IC1=CC=C(C=C1)N(C1=CC=C(I)C=C1)C1=CC=C(I)C=C1","-","-","-","Tris(4-iodophenyl)amine","167.0","?C","440.0","K","","","","","","-","","-","","-","","-"
"OC(C(O)C(=O)OCC1=CC=CC=C1)C(=O)OCC1=CC=CC=C1","-","-","-","(-)-Dibenzyl D-tartrate","63.0 - 65.0","?C","337.0","K","","","","","","-","","-","","-","","-"
"O=CC1=CC=C(C=N1)N1CCCC1","-","-","-","5-Pyrrolidin-1-ylpyridine-2-carbaldehyde","101.0 - 102.5","?C","374.8","K","","","","","","-","","-","","-","","-"
"NC1=CC(=CC=C1)C1=NC=CC=N1","-","-","-","3-Pyrimidin-2-ylaniline","99.5 - 101.5","?C","373.5","K","","","","","","-","","-","","-","","-"
"CC1(CC(O)=O)OCCC2=C1C=CS2","-","-","-","(4-Methyl-6,7-dihydro-4H-thieno[3,2-c]pyran-4-yl)acetic acid","92.5 - 93.5","?C","366.0","K","","","","","","-","","-","","-","","-"
"FC1=C(F)C(F)=C(OC(=O)C2=CN=C(C=C2)C2=CC=CC=C2)C(F)=C1F","-","-","-","pentafluorophenyl 6-phenylnicotinate","113.0 - 115.0","?C","387.0","K","","","","","","-","","-","","-","","-"
"OC(=O)C1=CSC(=N1)N1CCOCC1","-","-","-","2-Morpholino-1,3-thiazole-4-carboxylic acid","175.0 - 177.0","?C","449.0","K","","","","","","-","","-","","-","","-"
"OCC1=CSC(=N1)N1CCOCC1","-","-","-","(2-Morpholino-1,3-thiazol-4-yl)methanol","118.5 - 120.5","?C","392.5","K","","","","","","-","","-","","-","","-"
"COC(=O)C1=CC(O)=CC(N)=C1","-","-","-","methyl 3-amino-5-hydroxybenzoate","124.5 - 125.5","?C","398.0","K","","","","","","-","","-","","-","","-"
"NC(=S)C1CCN(CC1)C(=O)OCC1=CC=CC=C1","-","-","-","benzyl 4-[amino(thiocarbonyl)]piperidine-1-carboxylate","128.0 - 129.5","?C","401.8","K","","","","","","-","","-","","-","","-"
"OCC1=CC=CC2=C1SC=C2","-","-","-","1-benzothien-7-ylmethanol","76.5 - 78.0","?C","350.2","K","","","","","","-","","-","","-","","-"
"CN1C=CC(=N1)C1=CC=C(C=C1)N=C=O","-","-","-","3-(4-Isocyanatophenyl)-1-methyl-1H-pyrazole","67.0 - 70.0","?C","341.5","K","","","","","","-","","-","","-","","-"
"FC1=C(F)C(F)=C(OC(=O)C2=CC(=NC=C2)N2CCSCC2)C(F)=C1F","-","-","-","Pentafluorophenyl 2-thiomorpholin-4-ylisonicotinate","99.0 - 100.5","?C","372.8","K","","","","","","-","","-","","-","","-"
"FC1=C(F)C(F)=C(OC(=O)C2=CC=C(OC3CCOCC3)C=C2)C(F)=C1F","-","-","-","Pentafluorophenyl 4-(tetrahydropyran-4-yloxy)benzoate","111.0 - 114.0","?C","385.5","K","","","","","","-","","-","","-","","-"
"FC1=C(F)C(F)=C(OC(=O)C2=CN=C(C=C2)C2=CC=CS2)C(F)=C1F","-","-","-","Pentafluorophenyl 6-thien-2-ylnicotinate","139.5 - 141.5","?C","413.5","K","","","","","","-","","-","","-","","-"
"OC(=O)C1=C(C=CS1)C1OCCO1","-","-","-","3-(1,3-Dioxolan-2-yl)-2-thiophenecarboxylic acid","142.0 - 143.5","?C","415.8","K","","","","","","-","","-","","-","","-"
"FC1=C(F)C(F)=C(OC(=O)C2=C(C=CS2)C2OCCO2)C(F)=C1F","-","-","-","Pentafluorophenyl 3-(1,3-dioxolan-2-yl)thiophene-2-carboxylate","55.5 - 59.5","?C","330.5","K","","","","","","-","","-","","-","","-"
"O=CC1=CC=C(C=C1)C1=CC=C(C=O)C=C1","-","-","-","4,4'-Biphenyldicarboxaldehyde","148.0","?C","421.0","K","","","","","","-","","-","","-","","-"
"CN1N=CC=C1C1=CC=CC(=C1)C(O)=O","-","-","-","3-(1-Methyl-1H-pyrazol-5-yl)benzoic acid","138.5 - 139.5","?C","412.0","K","","","","","","-","","-","","-","","-"
"CC1=NC(OC2=CC=CC(N)=C2)=CN=C1","-","-","-","3-[(6-Methylpyrazin-2-yl)oxy]aniline","59.5 - 61.0","?C","333.2","K","","","","","","-","","-","","-","","-"
"[O-][N+](=O)C1=C(Cl)C(C=O)=C(Cl)C=C1","-","-","-","2,6-Dichloro-3-nitrobenzaldehyde","165.0 - 167.0","?C","439.0","K","","","","","","-","","-","","-","","-"
"CN1C=CC(=N1)C1=CC=C(CCl)C=C1","-","-","-","3-[4-(chloromethyl)phenyl]-1-methyl-1h-pyrazole","78.0 - 80.0","?C","352.0","K","","","","","","-","","-","","-","","-"
"NC(=N)SCCCS(O)(=O)=O","-","-","-","3-(Amidinothio)-1-propanesulfonic acid","240.0 - 248.0","?C","517.0","K","","","","","","-","","-","","-","","-"
"CC(O)C1=CC=NC=C1","-","-","-","(R)-4-(1-Hydroxyethyl)pyridine","68.0 - 70.0","?C","342.0","K","","","","","","-","","-","","-","","-"
"BrCC1=NC(=CC=C1)N1CCCC1","-","-","-","2-(bromomethyl)-6-pyrrolidin-1-ylpyridine","69.0 - 72.5","?C","343.8","K","","","","","","-","","-","","-","","-"
"BrC1=CC=C(C=C1)C#CC1=CC=C(Br)C=C1","-","-","-","Bis(4-bromophenyl)acetylene","182.0 - 184.0","?C","456.0","K","","","","","","-","","-","","-","","-"
"OC(=O)CN(CC(O)=O)C1=CC=CC=C1","-","-","-","N-PHENYLIMINODIACETIC ACID","156.0 - 160.0","?C","431.0","K","","","","","","-","","-","","-","","-"
"CCOC(=O)C1=CC(OC2=CN=CC(C)=N2)=CC=C1","-","-","-","Ethyl 3-[(6-methylpyrazin-2-yl)oxy]benzoate","50.5 - 51.5","?C","324.0","K","","","","","","-","","-","","-","","-"
"CC(C)(C)OC(=O)NC1=CC(=CC(O)=C1)C(O)=O","-","-","-","3-[(tert-Butoxycarbonyl)amino]-5-hydroxybenzoic acid","150.0 - 151.0","?C","423.5","K","","","","","","-","","-","","-","","-"
"OC(=O)C1=CC=C(OC(F)(F)C(F)F)C=C1","-","-","-","4-(1,1,2,2-Tetrafluoroethoxy)benzoic acid","176.0 - 177.0","?C","449.5","K","","","","","","-","","-","","-","","-"
"C1CN(CCN1)C1=CC=NC=C1","-","-","-","1-(4-Pyridyl)piperazine","142.0 - 144.0","?C","416.0","K","","","","","","-","","-","","-","","-"
"OC(=O)C1=C(Cl)C=CN=C1","-","-","-","4-Chloronicotinic acid","200.0 - 215.0","?C","480.5","K","","","","","","-","","-","","-","","-"
"OC(=O)C=CC1=C(F)C=CC=C1F","-","-","-","trans-2,6-Difluorocinnamic acid","124.0 - 125.0","?C","397.5","K","","","","","","-","","-","","-","","-"
"CN(C(Cl)=S)C1=CC=C(Cl)C=C1","-","-","-","N-(4-Chlorophenyl)-N-methylthiocarbamoyl chloride","76.0 - 78.0","?C","350.0","K","","","","","","-","","-","","-","","-"
"CN(C(Cl)=S)C1=CC=C(Br)C=C1","-","-","-","N-(4-Bromophenyl)-N-methylthiocarbamoyl chloride","101.0 - 104.0","?C","375.5","K","","","","","","-","","-","","-","","-"
"COC1=CC=C2OC(=CC2=C1)C(O)=O","-","-","-","5-Methoxybenzofuran-2-carboxylic acid","212.0 - 214.0","?C","486.0","K","","","","","","-","","-","","-","","-"
"OC(=O)C1=CC2=C(O1)C=CC(=C2)[N+]([O-])=O","-","-","-","5-Nitrobenzofuran-2-carboxylic acid","274.0 - 275.0","?C","547.5","K","","","","","","-","","-","","-","","-"
"CN(C(Cl)=S)C1=CC=C(F)C=C1","-","-","-","N-(4-Fluorophenyl)-N-methylthiocarbamoyl chloride","92.0 - 94.0","?C","366.0","K","","","","","","-","","-","","-","","-"
"FC1=C(F)C(=C(F)C(F)=C1Br)C1=C(F)C(F)=C(Br)C(F)=C1F","-","-","-","4,4'-Dibromooctafluorobiphenyl","113.0 - 115.0","?C","387.0","K","","","","","","-","","-","","-","","-"
"FC(F)(F)C1=CC=CN=C1S","-","-","-","2-Mercapto-3-(trifluoromethyl)pyridine","180.0 - 182.0","?C","454.0","K","","","","","","-","","-","","-","","-"
"OC1=NC(=CC=N1)C(F)(F)F","-","-","-","2-Hydroxy-4-trifluoromethylpyrimidine","217.0 - 218.0","?C","490.5","K","","","","","","-","","-","","-","","-"
"FC1=CC2=C(OCC(C=O)=C2Cl)C=C1","-","-","-","4-chloro-6-fluoro-2H-chromene-3-carbaldehyde","84.0 - 86.0","?C","358.0","K","","","","","","-","","-","","-","","-"
"OC(=O)C1=C(Cl)C(=C(Cl)C(F)=C1)[N+]([O-])=O","-","-","-","2,4-Dichloro-5-fluoro-3-nitrobenzoic acid","193.0 - 197.0","?C","468.0","K","","","","","","-","","-","","-","","-"
"NC1=CN=C(C=C1)C(F)(F)F","-","-","-","5-Amino-2-(trifluoromethyl)pyridine","39.0 - 40.0","?C","312.5","K","","","","","","-","","-","","-","","-"
"NNC1=C(C=C(Cl)C=C1Cl)C(F)(F)F","-","-","-","1-[2,4-Dichloro-6-(trifluoromethyl)phenyl]hydrazine","40.0 - 43.0","?C","314.5","K","","","","","","-","","-","","-","","-"
"CC1=CC=C(C=C1)C(C1=CC=C(C)C=C1)(C(F)(F)F)C(F)(F)F","-","-","-","4,4'-(Hexafluoroisopropylidene)ditoluene","82.0 - 83.0","?C","355.5","K","","","","","","-","","-","","-","","-"
"NC(=S)NCCCN1CCOCC1","-","-","-","1-(3-Morpholinopropyl)-2-thiourea","129.0 - 131.0","?C","403.0","K","","","","","","-","","-","","-","","-"
"NC1=CC(F)=C(C=C1F)C#N","-","-","-","4-Amino-2,5-difluorobenzonitrile","95.0 - 97.0","?C","369.0","K","","","","","","-","","-","","-","","-"
"COC1=C(O)C=C(CC(O)=O)C=C1","-","-","-","3-Hydroxy-4-methoxyphenylacetic acid","128.0 - 130.0","?C","402.0","K","","","","","","-","","-","","-","","-"
"OC(=O)CC1=C(F)C(F)=CC=C1F","-","-","-","2,3,6-Trifluorophenylacetic acid","111.0 - 114.0","?C","385.5","K","","","","","","-","","-","","-","","-"
"[O-][N+](=O)C1=CC(Cl)=C(C=C1)N1CCNCC1","-","-","-","1-(2-Chloro-4-nitrophenyl)-piperazine","105.0 - 106.0","?C","378.5","K","","","","","","-","","-","","-","","-"
"NC(=O)C1=C(N)C=CC=C1F","-","-","-","2-Amino-6-fluorobenzamide","115.0 - 118.0","?C","389.5","K","","","","","","-","","-","","-","","-"
"NC(=O)C1=CC=C(N=C1O)C(F)(F)F","-","-","-","2-Hydroxy-6-(trifluoromethyl)nicotinamide","220.0 - 223.0","?C","494.5","K","","","","","","-","","-","","-","","-"
"NNC(=O)C1=CC=C(F)C=C1F","-","-","-","2,4-Difluorobenzhydrazide","141.0 - 142.0","?C","414.5","K","","","","","","-","","-","","-","","-"
"CN(C)C=C[N+]([O-])=O","-","-","-","N1,N1-Dimethyl-2-nitroeth-1-en-1-amine","103.0 - 105.0","?C","377.0","K","","","","","","-","","-","","-","","-"
"OC1=C(Cl)C=C2C(OC(=O)C=C2C(F)(F)F)=C1","-","-","-","6-Chloro-7-hydroxy-4-(trifluoromethyl)coumarin","178.0 - 182.0","?C","453.0","K","","","","","","-","","-","","-","","-"
"FC1=C(C#N)C(OCC(F)(F)F)=CC=C1","-","-","-","2-Fluoro-6-(2,2,2-trifluoroethoxy)benzonitrile","88.0 - 90.0","?C","362.0","K","","","","","","-","","-","","-","","-"
"CC(=O)C1=CC=C(O)C(O)=C1","-","-","-","3',4'-Dihydroxyacetophenone","117.0 - 119.0","?C","391.0","K","","","","","","-","","-","","-","","-"
"NC(CCCC(F)(F)F)C(O)=O","-","-","-","6,6,6-Trifluoronorleucine","272.0 - 274.0","?C","546.0","K","","","","","","-","","-","","-","","-"
"S=C(NC1CCCCC1)NC1CCCCC1","-","-","-","1,3-Dicyclohexyl-2-thiourea","33.0 - 37.0","?C","308.0","K","","","","","","-","","-","","-","","-"
"OC1=CC=C(Br)C(F)=C1","-","-","-","4-Bromo-3-fluorophenol","71.5 - 72.5","?C","345.0","K","","","","","","-","","-","","-","","-"