"SMILES","CASRN","EXTERNALID","N","NAME","Melting Point","UNIT {Melting Point}","Melting Point {measured, converted}","UNIT {Melting Point}","Dataset","comment (property)","comment (chemical)","measurement method","Pressure","UNIT {Pressure}","Som set numeric condition","UNIT {Som set numeric condition}","Resp set numeric condition","UNIT {Resp set numeric condition}","Quality code","UNIT {Quality code}"
"COC(=O)C1=CC2=C(N1)C=CC=C2OC","-","-","-","Methyl 4-methoxy-2-indolecarboxylate","140.0 - 142.0","?C","414.0","K","","","","","","-","","-","","-","","-"
"COC1=C(C=O)C=C(F)C=C1","-","-","-","5-Fluoro-2-methoxybenzaldehyde","41.0 - 46.0","?C","316.5","K","","","","","","-","","-","","-","","-"
"OC(=O)C1=NON=C1","-","-","-","1,2,5-Oxadiazole-3-carboxylic acid","102.0 - 104.0","?C","376.0","K","","","","","","-","","-","","-","","-"
"COC1=CC=CC(=C1)C1=CC=C(O1)C(O)=O","-","-","-","5-(3-Methoxyphenyl)-2-furoic acid","169.0 - 170.0","?C","442.5","K","","","","","","-","","-","","-","","-"
"ON=C(Cl)C1=C(Cl)C=CC=C1Cl","-","-","-","2,6-Dichloro-N-hydroxybenzenecarboximidoyl chloride","85.0 - 89.0","?C","360.0","K","","","","","","-","","-","","-","","-"
"CC(=O)C1=CC=C(S1)C=O","-","-","-","5-Acetyl-2-thiophenecarbaldehyde","105.0 - 106.0","?C","378.5","K","","","","","","-","","-","","-","","-"
"CC(C)(C)OC(=O)N1CCN(CC1)C1=CC=C(C=O)C=C1","-","-","-","tert-Butyl 4-(4-formylphenyl)tetrahydro-1(2H)-pyrazinecarboxylate","118.0 - 119.0","?C","391.5","K","","","","","","-","","-","","-","","-"
"CC(C)(C)OC(=O)N1CCN(CC1)C1=CC=C(CO)C=C1","-","-","-","tert-Butyl 4-[4-(hydroxymethyl)phenyl]tetrahydro-1(2H)-pyrazinecarboxylate","109.0 - 111.0","?C","383.0","K","","","","","","-","","-","","-","","-"
"CC(C)(C)OC(=O)N1CCN(CC1)C1=CC=C(C=C1)C#N","-","-","-","tert-Butyl 4-(4-cyanophenyl)tetrahydro-1(2H)-pyrazinecarboxylate","124.0 - 125.0","?C","397.5","K","","","","","","-","","-","","-","","-"
"NCC1=CC2=C(O1)C=CC(Br)=C2","-","-","-","(5-Bromobenzo[b]furan-2-yl)methylamine","39.0 - 40.0","?C","312.5","K","","","","","","-","","-","","-","","-"
"OC(=O)CCN1C=CN=C1","-","-","-","3-(1H-Imidazol-1-yl)propanoic acid","147.0 - 149.0","?C","421.0","K","","","","","","-","","-","","-","","-"
"COC1=CC=C(Br)C(OC)=C1C(O)=O","-","-","-","3-Bromo-2,6-dimethoxybenzoic acid","146.0 - 148.0","?C","420.0","K","","","","","","-","","-","","-","","-"
"OC(=O)CCN1C=NC=N1","-","-","-","3-(1H-1,2,4-Triazol-1-yl)propanoic acid","177.0 - 179.0","?C","451.0","K","","","","","","-","","-","","-","","-"
"O=CC1=CC2=C(OC3=C2C=CC=C3)C=C1","-","-","-","Dibenzo[b,d]furan-2-carbaldehyde","74.0","?C","347.0","K","","","","","","-","","-","","-","","-"
"CC1=CN=C(Cl)C(Br)=C1","-","-","-","2-Chloro-3-bromo-5-methylpyridine","66.0 - 68.0","?C","340.0","K","","","","","","-","","-","","-","","-"
"C1CN(CCN1)C1=NC=CC2=C1C=CO2","-","-","-","4-Piperazin-1-yl-furo[3,2-c]pyridine","58.0 - 60.0","?C","332.0","K","","","","","","-","","-","","-","","-"
"CN(C)C1=C(C=CC=C1)C1=C(C=CC=C1)P(C1=CC=CC=C1)C1=CC=CC=C1","-","-","-","2-Diphenylphosphino-2'-(N,N-dimethylamino)biphenyl","126.0 - 128.0","?C","400.0","K","","","","","","-","","-","","-","","-"
"CC(C)(C)P(C1=C(C2=CC=CC=C2C=C1)C1=C2C=CC=CC2=CC=C1)C(C)(C)C","-","-","-","2-(Di-tert-butylphosphino)-1,1'-binaphthyl","147.0 - 149.0","?C","421.0","K","","","","","","-","","-","","-","","-"
"BrCC(=O)C1=NC=CS1","-","-","-","2-Bromo-1-(1,3-thiazol-2-yl)ethanone","54.0 - 55.0","?C","327.5","K","","","","","","-","","-","","-","","-"
"CC1=C(OC=N1)C(O)=O","-","-","-","4-Methyl-1,3-oxazole-5-carboxylic acid","239.0 - 240.0","?C","512.5","K","","","","","","-","","-","","-","","-"
"[O-][N+](=O)C1=CC2=C(C=C1)N=CO2","-","-","-","6-Nitro-1,3-benzoxazole","150.0 - 152.0","?C","424.0","K","","","","","","-","","-","","-","","-"
"NC1=C(C=CC=C1Br)C(O)=O","-","-","-","2-Amino-3-bromobenzoic acid","173.0 - 175.0","?C","447.0","K","","","","","","-","","-","","-","","-"
"ClCC1=CC(Br)=CC2=C1OCOC2","-","-","-","6-Bromo-8-(chloromethyl)-4H-1,3-benzodioxine","103.0","?C","376.0","K","","","","","","-","","-","","-","","-"
"O=CC1=CC2=C(SC=C2)C=C1","-","-","-","1-Benzothiophene-5-carbaldehyde","53.0 - 54.0","?C","326.5","K","","","","","","-","","-","","-","","-"
"CC1=C(I)C=NO1","-","-","-","4-Iodo-5-methyl-isoxazole","27.0 - 28.0","?C","300.5","K","","","","","","-","","-","","-","","-"
"BrC1=COC2=C1C=CC=C2","-","-","-","3-Bromo-1-benzofuran","35.0 - 38.0","?C","309.5","K","","","","","","-","","-","","-","","-"
"CC(C)(C)OC(=O)N1CCN(CC2=CC=C(C=C2)C(O)=O)CC1","-","-","-","4-{[4-(tert-Butoxycarbonyl)piperazino]methyl}benzoic acid","196.0 - 204.0","?C","473.0","K","","","","","","-","","-","","-","","-"
"OC(=O)C1=CC2=C(S1)C=CC(Br)=C2","-","-","-","5-Bromo-1-benzothiophene-2-carboxylic acid","233.0 - 234.0","?C","506.5","K","","","","","","-","","-","","-","","-"
"COC1=C(OC2CCCC2)C=C(C=C1)C(Cl)=O","-","-","-","3-(Cyclopentyloxy)-4-methoxybenzoyl chloride","46.0 - 47.0","?C","319.5","K","","","","","","-","","-","","-","","-"
"BrC1=CC=C2CCCC(=O)C2=C1","-","-","-","7-Bromo-3,4-dihydro-1(2H)-naphthalenone","78.0 - 79.0","?C","351.5","K","","","","","","-","","-","","-","","-"
"OC1=C(Cl)C=C(C=O)C=C1Cl","-","-","-","3,5-Dichloro-4-hydroxybenzaldehyde","154.0 - 156.0","?C","428.0","K","","","","","","-","","-","","-","","-"
"OC(=O)C1OC1C(O)=O","-","-","-","cis-Epoxysuccinic acid","148.0 - 149.0","?C","421.5","K","","","","","","-","","-","","-","","-"
"CC1=C(SC(=N1)C1=CC=CC=C1)S(Cl)(=O)=O","-","-","-","4-Methyl-2-phenyl-1,3-thiazole-5-sulfonyl chloride","76.0 - 78.0","?C","350.0","K","","","","","","-","","-","","-","","-"
"CC1=NC2=CC=C(C=C2C=C1)C(O)=O","-","-","-","2-Methyl-6-quinolinecarboxylic acid","250.0","?C","523.0","K","","","","","","-","","-","","-","","-"
"CC(C)(C)OC(=O)N1CCN(CC1)C1=CC=C(C=C1)C(O)=O","-","-","-","4-[4-(tert-Butoxycarbonyl)piperazino]benzoic acid","50.0","?C","323.0","K","","","","","","-","","-","","-","","-"
"CC(C)(C)OC(=O)N1CCN(CC2=CC=C(CO)C=C2)CC1","-","-","-","tert-Butyl 4-[4-(hydroxymethyl)benzyl]tetrahydro-1(2H)-pyrazinecarboxylate","52.0 - 53.0","?C","325.5","K","","","","","","-","","-","","-","","-"
"CC(C)(C)OC(=O)N1CCN(CC2=CC(=CC=C2)C(O)=O)CC1","-","-","-","3-{[4-(tert-Butoxycarbonyl)piperazin-1-yl]methyl}benzoic acid","173.0 - 175.0","?C","447.0","K","","","","","","-","","-","","-","","-"
"CC(C)(C)OC(=O)N1CCN(CC1)C1=CC=CC=C1C(O)=O","-","-","-","2-[4-(tert-Butoxycarbonyl)piperazino]benzoic acid","165.0 - 166.0","?C","438.5","K","","","","","","-","","-","","-","","-"
"COC(=O)C1=NN2C=CC=CC2=C1C(=O)OC","-","-","-","Dimethyl pyrazolo[1,5-a]pyridine-2,3-dicarboxylate","72.0 - 74.0","?C","346.0","K","","","","","","-","","-","","-","","-"
"CC(C)(C)OC(=O)N1CCN(CC2=CC=CC(C=O)=C2)CC1","-","-","-","tert-Butyl 4-(3-formylbenzyl)tetrahydro-1(2H)-pyrazinecarboxylate","67.0 - 68.0","?C","340.5","K","","","","","","-","","-","","-","","-"
"CC(C)(C)OC(=O)N1CCC(CC1)C1=NC(=CS1)C(O)=O","-","-","-","2-[1-(tert-Butoxycarbonyl)-4-piperidinyl]-1,3-thiazole-4-carboxylic acid","162.0 - 166.0","?C","437.0","K","","","","","","-","","-","","-","","-"
"CSC1=NC=CC=C1C1=NC(CCl)=NO1","-","-","-","3-[3-(Chloromethyl)-1,2,4-oxadiazol-5-yl]-2-(methylthio)pyridine","110.0 - 111.0","?C","383.5","K","","","","","","-","","-","","-","","-"
"NC(=S)C1=C(F)C=C(F)C=C1","-","-","-","2,4-Difluorobenzene-1-carbothioamide","131.0","?C","404.0","K","","","","","","-","","-","","-","","-"
"NCC1=CC=C(C=C1)C(O)=O","-","-","-","4-(Aminomethyl)benzoic acid","300.0","?C","573.0","K","","","","","","-","","-","","-","","-"
"COC1=CC=C(C=C1)C(C=O)C=O","-","-","-","2-(4-Methoxyphenyl)malondialdehyde","178.0 - 181.0","?C","452.5","K","","","","","","-","","-","","-","","-"
"ClC(=O)C1=NC=CS1","-","-","-","1,3-Thiazole-2-carbonyl chloride","54.0 - 58.0","?C","329.0","K","","","","","","-","","-","","-","","-"
"CC1=NC2=CC=C(CBr)C=C2C=C1","-","-","-","6-(Bromomethyl)-2-methylquinoline","93.0 - 94.0","?C","366.5","K","","","","","","-","","-","","-","","-"
"COC1=CC=C(C=C1)C(N)=NO","-","-","-","N'-Hydroxy-4-methoxybenzenecarboximidamide","119.0 - 121.0","?C","393.0","K","","","","","","-","","-","","-","","-"
"NC(=S)C1=C(Cl)C(Cl)=CC=C1","-","-","-","2,3-Dichlorobenzene-1-carbothioamide","121.0 - 123.0","?C","395.0","K","","","","","","-","","-","","-","","-"
"O=S1(=O)CCN(CC#C)CC1","-","-","-","4-(Prop-2-ynyl)thiomorpholine 1,1-dioxide","114.0 - 116.0","?C","388.0","K","","","","","","-","","-","","-","","-"
"O=C(C1CCNCC1)N1CCCCC1","-","-","-","Piperidino(4-piperidinyl)methanone","107.0 - 109.0","?C","381.0","K","","","","","","-","","-","","-","","-"
"O=C(C1CCNCC1)N1CCCCCC1","-","-","-","1-Azepanyl(4-piperidinyl)methanone","41.0 - 47.0","?C","317.0","K","","","","","","-","","-","","-","","-"
"NCC1=CC2=C(SC=C2)C=C1","-","-","-","1-Benzothiophen-5-ylmethylamine","41.0 - 43.0","?C","315.0","K","","","","","","-","","-","","-","","-"
"NNC1=NC2=CC=CC=C2N=C1","-","-","-","2-Hydrazinoquinoxaline","165.0 - 167.0","?C","439.0","K","","","","","","-","","-","","-","","-"
"CC1=C(C=C(O1)C1=CC=C(Cl)C=C1)C(O)=O","-","-","-","5-(4-Chlorophenyl)-2-methyl-3-furoic acid","231.0 - 232.0","?C","504.5","K","","","","","","-","","-","","-","","-"
"OC(=O)C1=C(OC(=C1)C1=CC=C(Br)C=C1)C(F)(F)F","-","-","-","5-(4-Bromophenyl)-2-(trifluoromethyl)-3-furoic acid","201.0 - 203.0","?C","475.0","K","","","","","","-","","-","","-","","-"
"[O-][N+](=O)C1=CC=CC(=C1)C1=CC=C(O1)C=O","-","-","-","5-(3-Nitrophenyl)furfural","156.0 - 158.0","?C","430.0","K","","","","","","-","","-","","-","","-"
"N#CC(=CC1=CC=CO1)C#N","-","-","-","(2-Furanylmethylene)malononitrile","70.0 - 74.0","?C","345.0","K","","","","","","-","","-","","-","","-"
"ClC1=CC=C(C=C1)C1=CC=C(O1)C=O","-","-","-","5-(4-Chlorophenyl)furfural","128.0 - 131.0","?C","402.5","K","","","","","","-","","-","","-","","-"
"ClC1=C(C=CC=C1)C1=CC=C(O1)C=O","-","-","-","5-(2-Chlorophenyl)furfural","75.0 - 78.0","?C","349.5","K","","","","","","-","","-","","-","","-"
"OC(=O)C1=CC=C(O1)C1=CC=C(C=C1)[N+]([O-])=O","-","-","-","5-(4-Nitrophenyl)-2-furoic acid","255.0 - 257.0","?C","529.0","K","","","","","","-","","-","","-","","-"
"OC(=O)C1=CC=C(O1)C1=CC=C(Cl)C=C1","-","-","-","5-(4-Chlorophenyl)-2-furoic acid","198.0 - 201.0","?C","472.5","K","","","","","","-","","-","","-","","-"
"OC(=O)C1=CC(=C(S1)C(F)(F)F)C1=CC=CC=C1","-","-","-","4-Phenyl-5-(trifluoromethyl)thiophene-2-carboxylic acid","130.0 - 132.0","?C","404.0","K","","","","","","-","","-","","-","","-"
"NC1=CSC(=C1C1=CC=CC=C1)C(F)(F)F","-","-","-","4-Phenyl-5-(trifluoromethyl)thiophen-3-amine","65.0 - 66.0","?C","338.5","K","","","","","","-","","-","","-","","-"
"CCC1CCC(C)(C)C2=CC=C(CBr)C=C12","-","-","-","6-(Bromomethyl)-1,1,4,4-tetramethyl-1,2,3,4-tetrahydronaphthalene","37.0 - 38.0","?C","310.5","K","","","","","","-","","-","","-","","-"
"CSC1=NC(N)=CC(N)=N1","-","-","-","4,6-Diamino-2-methylmercaptopyrimidine","189.0 - 193.0","?C","464.0","K","","","","","","-","","-","","-","","-"
"FC1=CC(C(Br)Br)=C(C=C1)C(Br)Br","-","-","-","Tetrabromo-4-fluoro-o-xylene","92.0 - 97.0","?C","367.5","K","","","","","","-","","-","","-","","-"
"[O-][N+](=O)C1=CC(Cl)=CN=C1Cl","-","-","-","2,5-Dichloro-3-nitropyridine","38.0 - 42.0","?C","313.0","K","","","","","","-","","-","","-","","-"
"CC1=CC(=C(N)N=C1)[N+]([O-])=O","-","-","-","6-Amino-5-nitro-3-picoline","190.0 - 195.0","?C","465.5","K","","","","","","-","","-","","-","","-"
"O=CC1=NC2=CC=CC=C2N=C1","-","-","-","2-Quinoxalinecarbaldehyde","108.0 - 111.0","?C","382.5","K","","","","","","-","","-","","-","","-"
"CC(C)(C)OC(=O)N1CCC(CC1)OC1=CC=C(C=C1)C(O)=O","-","-","-","4-{[1-(tert-Butoxycarbonyl)-4-piperidinyl]oxy}benzoic acid","175.0 - 177.0","?C","449.0","K","","","","","","-","","-","","-","","-"
"CC(C)(C)OC(=O)NCC1=CC=C(CO)C=C1","-","-","-","(4-Hydroxymethyl-benzyl)-carbamic acid tert-butyl ester","98.0 - 99.0","?C","371.5","K","","","","","","-","","-","","-","","-"
"CC(C)(C)OC(=O)NCC1=CC(CO)=CC=C1","-","-","-","(3-Hydroxymethyl-benzyl)-carbamic acid tert-butyl ester","51.0 - 55.0","?C","326.0","K","","","","","","-","","-","","-","","-"
"NC(=NO)C1=CC(Cl)=CC=C1","-","-","-","3-Chloro-N'-hydroxybenzenecarboximidamide","115.0 - 117.0","?C","389.0","K","","","","","","-","","-","","-","","-"
"COC(=O)C1=CC=C(CN2CCN(CC2)C(=O)OC(C)(C)C)C=C1","-","-","-","tert-Butyl 4-[4-(Methoxycarbonyl)benzyl]piperazine-1-carboxylate","78.0 - 80.0","?C","352.0","K","","","","","","-","","-","","-","","-"
"OC(=O)C1=CC=CC=C1C1=CC=CC=C1C=O","-","-","-","2'-Formyl[1,1'-biphenyl]-2-carboxylic acid","128.0 - 133.0","?C","403.5","K","","","","","","-","","-","","-","","-"
"CCOC(OCC)C(N)=S","-","-","-","2,2-Diethoxyethanethioamide","91.0 - 94.0","?C","365.5","K","","","","","","-","","-","","-","","-"
"COC(=O)C1=C(N)C(=CC=C1)C(O)=O","-","-","-","Methyl 2-amino-3-carboxybenzoate","160.0 - 167.0","?C","436.5","K","","","","","","-","","-","","-","","-"
"BrC1=CC=CC2=C1NC(=O)C2=O","-","-","-","7-Bromo-2,3-dioxoindoline","199.0 - 200.0","?C","472.5","K","","","","","","-","","-","","-","","-"
"OC(=O)C1=CC(C=O)=C(F)C=C1","-","-","-","4-Fluoro-3-formyl-benzoic acid","152.0 - 153.0","?C","425.5","K","","","","","","-","","-","","-","","-"
"CCOC(=O)C1=C(C)NC(=O)NC1=S","-","-","-","6-Methyl-2-oxo-4-thioxo-1,2,3,4-tetrahydro-pyrimidine-5-carboxylic acid ethyl ester","150.0","?C","423.0","K","","","","","","-","","-","","-","","-"
"ClC(=O)C1=CC=CC2=C1OCC2","-","-","-","2,3-Dihydro-1-benzofuran-7-carbonyl chloride","55.0 - 61.0","?C","331.0","K","","","","","","-","","-","","-","","-"
"BrC1=CC=CC2=C1C(C=O)=CN2","-","-","-","4-Bromo-1H-indole-3-carbaldehyde","179.0 - 180.0","?C","452.5","K","","","","","","-","","-","","-","","-"
"CC(C)(C)OC(=O)N1C=C(C(O)=O)C2=C1C=CC=C2Br","-","-","-","4-Brom-1-(tert.-butoxycarbonyl)-1H-indol-3-carbonsure","149.0 - 150.0","?C","422.5","K","","","","","","-","","-","","-","","-"
"CC(C)(C)OC(=O)N1C=C(C(O)=O)C2=CC(Br)=CC=C12","-","-","-","5-Bromo-1H-tert-butoxycarbonyl-indole-3-carboxylic acid","206.0 - 209.0","?C","480.5","K","","","","","","-","","-","","-","","-"
"CC(C)(C)OC(=O)N1CCN(CC2=CC=CC(N)=C2)CC1","-","-","-","tert-Butyl 4-(3-aminobenzyl)piperazine-1-carboxylate","107.0 - 108.0","?C","380.5","K","","","","","","-","","-","","-","","-"
"OC(=O)C1=NOC(=C1)C1=CC=CC=C1","-","-","-","5-Phenyl-3-isoxazolecarboxylic acid","192.0 - 200.0","?C","469.0","K","","","","","","-","","-","","-","","-"
"CC(C)(C)OC(=O)N1CCC(CC1)C1=NC(C=O)=CS1","-","-","-","tert-Butyl 4-(4-formyl-1,3-thiazol-2-yl)tetrahydro-1(2H)-pyridinecarboxylate","91.0 - 93.0","?C","365.0","K","","","","","","-","","-","","-","","-"
"BrCC(=O)C1=CC2=C(O1)C=CC(Br)=C2","-","-","-","2-Bromo-1-(5-bromo-1-benzofuran-2-yl)-1-ethanone","140.0 - 141.0","?C","413.5","K","","","","","","-","","-","","-","","-"
"BrC1=CC=CC(=C1)C1=NNC=C1","-","-","-","3-(3-Bromophenyl)-1H-pyrazole","73.0 - 74.0","?C","346.5","K","","","","","","-","","-","","-","","-"
"NC1=CC2=C(SC=N2)C=C1","-","-","-","1,3-Benzothiazol-5-amine","55.0 - 59.0","?C","330.0","K","","","","","","-","","-","","-","","-"
"CN1C=NN=C1C1=CC=CC(N)=C1","-","-","-","3-(4-Methyl-4H-1,2,4-triazol-3-yl)aniline","158.0 - 159.0","?C","431.5","K","","","","","","-","","-","","-","","-"
"CC(C)(OC1=CC2=CC=CC=C2C=C1)C(O)=O","-","-","-","2-Methyl-2-(2-naphthyloxy)-propionsaeure","123.0 - 124.0","?C","396.5","K","","","","","","-","","-","","-","","-"
"OC(=O)C1=NNC2=C1C=C(Br)C=C2","-","-","-","5-Bromo-1H-indazole-3-carboxylic acid","290.0 - 292.0","?C","564.0","K","","","","","","-","","-","","-","","-"
"CC1=CC(Br)=CC(N)=C1N","-","-","-","5-Bromo-3-methylbenzene-1,2-diamine","63.0 - 64.0","?C","336.5","K","","","","","","-","","-","","-","","-"
"NC1=CC=C(CO)C=N1","-","-","-","(6-Amino-3-pyridinyl)methanol","120.0","?C","393.0","K","","","","","","-","","-","","-","","-"
"BrC1=CC2=C(C=C1)C(C=O)=CN2","-","-","-","6-Bromo-1H-indole-3-carbaldehyde","202.0 - 203.0","?C","475.5","K","","","","","","-","","-","","-","","-"
"CC1=C(N=NN1CC1=CC=CC=C1)C(O)=O","-","-","-","1-Benzyl-5-methyl-1H-[1,2,3]triazole-4-carboxylic acid","170.0 - 171.0","?C","443.5","K","","","","","","-","","-","","-","","-"
"ClS(=O)(=O)C1=CC=C(C=C1)N1CCCC1=O","-","-","-","4-(2-Oxo-1-pyrrolidinyl)benzenesulfonyl chloride","107.0 - 108.0","?C","380.5","K","","","","","","-","","-","","-","","-"
"CC1=C(SC(=N1)C1CCN(CC1)C(=O)OC(C)(C)C)C(O)=O","-","-","-","4-Methyl-2-[1-(tert-butoxycarbonyl)piperid-4-yl]-1,3-thiazole-5-carboxylic acid","124.0 - 128.0","?C","399.0","K","","","","","","-","","-","","-","","-"
"CC1=C(CO)SC(=N1)C1CCN(CC1)C(=O)OC(C)(C)C","-","-","-","tert-Butyl 4-[5-(hydroxymethyl)-4-methyl-1,3-thiazol-2-yl]tetrahydro-1(2H)-pyridinecarboxylate","150.0 - 153.0","?C","424.5","K","","","","","","-","","-","","-","","-"
"CCOC(=O)C1=NC(=NO1)C1=CC(Br)=CN=C1","-","-","-","3-(5-Bromo-pyridin-3-yl)-[1,2,4]oxadiazole-5-carboxylic acid ethyl ester","101.0 - 103.0","?C","375.0","K","","","","","","-","","-","","-","","-"
"CC(C)(C)OC(=O)NCC1=CC=C(C=O)C=C1","-","-","-","tert-Butyl N-(4-formylbenzyl)carbamate","83.0 - 84.0","?C","356.5","K","","","","","","-","","-","","-","","-"
"CC(C)C(N)=NO","-","-","-","N'-Hydroxy-2-methylpropanimidamide","60.0 - 61.0","?C","333.5","K","","","","","","-","","-","","-","","-"
"OC(=O)C1=NNC2=C1C=CC=C2","-","-","-","1H-Indazole-3-carboxylic acid","259.0 - 262.0","?C","533.5","K","","","","","","-","","-","","-","","-"
"BrCC1=CC=C(C=C1)C1=CC=CS1","-","-","-","2-[4-(Bromomethyl)phenyl]thiophene","83.0 - 84.0","?C","356.5","K","","","","","","-","","-","","-","","-"
"OC(=O)C1=CC2=C(O1)C=CC(Br)=C2","-","-","-","5-Bromo-1-benzofuran-2-carboxylic acid","257.0 - 260.0","?C","531.5","K","","","","","","-","","-","","-","","-"
"OC(=O)C1=CC=C(C=C1)N1CCCCC1","-","-","-","4-Piperidinobenzoic acid","214.0 - 219.0","?C","489.5","K","","","","","","-","","-","","-","","-"
"OC(=O)C1=NOC(=C1)C1=CC=CO1","-","-","-","5-(2-Furyl)isoxazole-3-carboxylic acid","151.0","?C","424.0","K","","","","","","-","","-","","-","","-"
"NC(=O)C1CCN(CC1)C(=O)OCC1=CC=CC=C1","-","-","-","Benzyl 4-(aminocarbonyl)tetrahydro-1(2H)-pyridinecarboxylate","130.0 - 132.0","?C","404.0","K","","","","","","-","","-","","-","","-"
"CC(C)(C)OC(=O)N1CCC(CC1)C1=NC(CO)=CS1","-","-","-","4-[4-(Hydroxymethyl)-1,3-thiazol-2-yl]-piperidin-1-carbonsure-tert.-butylester","97.0 - 101.0","?C","372.0","K","","","","","","-","","-","","-","","-"
"CCOC(=O)C1=CSC(=N1)C1CCN(CC1)C(=O)OC(C)(C)C","-","-","-","tert-Butyl 4-[4-(ethoxycarbonyl)-1,3-thiazol-2-yl]tetrahydro-1(2H)-pyridinecarboxylate","71.0 - 73.0","?C","345.0","K","","","","","","-","","-","","-","","-"
"BrC1=CC2=C(OC(C=O)=C2)C=C1","-","-","-","5-Bromo-1-benzofuran-2-carbaldehyde","129.0 - 130.0","?C","402.5","K","","","","","","-","","-","","-","","-"
"CC(=O)C1=CSC2=C1C=C(Br)C=C2","-","-","-","1-(5-Bromo-1-benzothien-3-yl)ethanone","87.0 - 90.0","?C","361.5","K","","","","","","-","","-","","-","","-"
"NC1=C(OC(F)(F)F)C=C(C=C1)C#N","-","-","-","4-Amino-3-(trifluoromethoxy)benzonitrile","72.0","?C","345.0","K","","","","","","-","","-","","-","","-"
"CC1=NC(=CS1)C1=CC=CC(=C1)C#N","-","-","-","3-(2-Methyl-1,3-thiazol-4-yl)benzonitrile","112.0 - 114.0","?C","386.0","K","","","","","","-","","-","","-","","-"
"OC(=O)C1=CN=C2C=CC=CN12","-","-","-","Imidazo[1,2-a]pyridine-3-carboxylic acid","196.0 - 197.0","?C","469.5","K","","","","","","-","","-","","-","","-"
"CCOC(=O)C1CSCCN1","-","-","-","Ethyl thiomorpholine-3-carboxylate","118.0 - 121.0","?C","392.5","K","","","","","","-","","-","","-","","-"
"CC(C)(C)OC(=O)N1CCN(CC2=CC=CC(=C2)[N+]([O-])=O)CC1","-","-","-","tert-Butyl 4-(3-nitrobenzyl)tetrahydro-1(2H)-pyrazinecarboxylate","84.0 - 85.0","?C","357.5","K","","","","","","-","","-","","-","","-"
"ClC(=O)C1=CC2=C(O1)C=CC(Br)=C2","-","-","-","5-Bromobenzo[b]furan-2-carbonyl chloride","106.0 - 107.0","?C","379.5","K","","","","","","-","","-","","-","","-"
"NC1=CC=C2CS(=O)(=O)CC2=C1","-","-","-","2,2-Dioxo-1,3-dihydrobenzo[c]thiophene-5yl amine","186.0 - 187.0","?C","459.5","K","","","","","","-","","-","","-","","-"