"SMILES","CASRN","EXTERNALID","N","NAME","Melting Point","UNIT {Melting Point}","Melting Point {measured, converted}","UNIT {Melting Point}","Dataset","comment (property)","comment (chemical)","measurement method","Pressure","UNIT {Pressure}","Som set numeric condition","UNIT {Som set numeric condition}","Resp set numeric condition","UNIT {Resp set numeric condition}","Quality code","UNIT {Quality code}"
"ClC1=CC=C(SC2=C(C=O)N3C=CSC3=N2)C=C1","-","-","-","6-[(4-Chlorophenyl)thio]imidazo[2,1-b][1,3]thiazole-5-carbaldehyde","139.0 - 141.0","?C","413.0","K","","","","","","-","","-","","-","","-"
"COC(=O)C1=CC(Cl)=NC(Cl)=C1","-","-","-","Methyl 2,6-dichloroisonicotinate","82.0 - 83.0","?C","355.5","K","","","","","","-","","-","","-","","-"
"NC(=S)C1=CC=C(OCC(F)(F)F)N=C1","-","-","-","6-(2,2,2-Trifluoroethoxy)pyridine-3-carbothioamide","120.0 - 123.0","?C","394.5","K","","","","","","-","","-","","-","","-"
"SC1=NN=C(N1CC1=CC=CO1)C1=CC=C(Cl)C=C1Cl","-","-","-","5-(2,4-Dichlorophenyl)-4-(2-furylmethyl)-4H-1,2,4-triazole-3-thiol","158.0 - 160.0","?C","432.0","K","","","","","","-","","-","","-","","-"
"CN1C(S)=NN=C1C1=CC=C(Cl)C=C1Cl","-","-","-","5-(2,4-Dichlorophenyl)-4-methyl-4H-1,2,4-triazole-3-thiol","175.0 - 177.0","?C","449.0","K","","","","","","-","","-","","-","","-"
"FC(F)(F)C1=CC=CN(CCC#N)C1=O","-","-","-","3-[2-Oxo-3-(trifluoromethyl)-1,2-dihydropyridin-1-yl]propanenitrile","88.0 - 90.0","?C","362.0","K","","","","","","-","","-","","-","","-"
"[O-][N+](=O)C1=CC(Cl)=CNC1=O","-","-","-","5-Chloro-3-nitropyridin-2-ol","234.0 - 236.0","?C","508.0","K","","","","","","-","","-","","-","","-"
"COC(=O)C1=C(C)ON=C1C1=C(Cl)C=CC=C1Cl","-","-","-","Methyl 3-(2,6-dichlorophenyl)-5-methylisoxazole-4-carboxylate","115.0","?C","388.0","K","","","","","","-","","-","","-","","-"
"FC(F)(F)C1=CC=C(C=C1)C(=O)CBr","-","-","-","2-Bromo-1-[4-(trifluoromethyl)phenyl]ethan-1-one","45.0 - 46.0","?C","318.5","K","","","","","","-","","-","","-","","-"
"FC1=CC=CC(=C1)C(=O)CBr","-","-","-","2-Bromo-1-(3-fluorophenyl)ethan-1-one","34.0 - 35.0","?C","307.5","K","","","","","","-","","-","","-","","-"
"COC(=O)C1=CC(C)=NC(Cl)=N1","-","-","-","Methyl 2-chloro-6-methylpyrimidine-4-carboxylate","110.0 - 111.0","?C","383.5","K","","","","","","-","","-","","-","","-"
"FC(F)(F)C1=CN(CCC#N)C(=O)C=C1","-","-","-","3-[2-Oxo-5-(trifluoromethyl)-1,2-dihydropyridin-1-yl]propanenitrile","89.0 - 90.0","?C","362.5","K","","","","","","-","","-","","-","","-"
"ClC1=NC=CC(=C1)C#N","-","-","-","2-Chloroisonicotinonitrile","71.0 - 72.0","?C","344.5","K","","","","","","-","","-","","-","","-"
"O=C1NC2=C(O1)C=CC=N2","-","-","-","[1,3]Oxazolo[4,5-b]pyridin-2-ol","214.0 - 215.0","?C","487.5","K","","","","","","-","","-","","-","","-"
"ON=C(Cl)C1=CC=C(Cl)C=C1Cl","-","-","-","2,4-Dichloro-N-hydroxybenzenecarboximidoyl chloride","93.0 - 95.0","?C","367.0","K","","","","","","-","","-","","-","","-"
"N#CC1=CC=C(N=C1)N1CCNCC1","-","-","-","6-Piperazinonicotinonitrile","131.0","?C","404.0","K","","","","","","-","","-","","-","","-"
"ClC1=CN=CC(Cl)=C1N1CCNCC1","-","-","-","1-(3,5-Dichloro-4-pyridyl)piperazine","77.0 - 80.0","?C","351.5","K","","","","","","-","","-","","-","","-"
"OC(=O)C1=CC(Cl)=CN=C1O","-","-","-","5-Chloro-2-hydroxynicotinic acid","260.0 - 262.0","?C","534.0","K","","","","","","-","","-","","-","","-"
"NC1=CC(Cl)=CN=C1Cl","-","-","-","2,5-Dichloropyridin-3-amine","124.0 - 125.0","?C","397.5","K","","","","","","-","","-","","-","","-"
"NC(=NO)C1=CC=C(Cl)C=C1","-","-","-","4-Chloro-N'-hydroxybenzenecarboximidamide","131.0 - 134.0","?C","405.5","K","","","","","","-","","-","","-","","-"
"SC1=NNC(S1)C1=NC=CC=C1","-","-","-","5-Pyridin-2-yl-4,5-dihydro-1,3,4-thiadiazole-2-thiol","114.0 - 116.0","?C","388.0","K","","","","","","-","","-","","-","","-"
"SC1=NN=C(O1)C1=CC(Cl)=NC(Cl)=C1","-","-","-","5-(2,6-Dichloro-4-pyridyl)-1,3,4-oxadiazole-2-thiol","205.0 - 206.0","?C","478.5","K","","","","","","-","","-","","-","","-"
"NNC(=O)C1=CC=C(Cl)N=C1","-","-","-","6-Chloropyridine-3-carbohydrazide","250.0","?C","523.0","K","","","","","","-","","-","","-","","-"
"COC1=C(C=C(C=C1)C#N)[N+]([O-])=O","-","-","-","4-Methoxy-3-nitrobenzonitrile","148.0 - 151.0","?C","422.5","K","","","","","","-","","-","","-","","-"
"COC1=C(C=C(C=C1)C(N)=S)[N+]([O-])=O","-","-","-","4-Methoxy-3-nitrobenzene-1-carbothioamide","191.0 - 192.0","?C","464.5","K","","","","","","-","","-","","-","","-"
"NC(=S)C1=CC=C2C=CC=CC2=C1","-","-","-","Naphthalene-2-carbothioamide","151.0 - 152.0","?C","424.5","K","","","","","","-","","-","","-","","-"
"CC1=C(CCl)C(=NO1)C1=C(Cl)C=CC=C1Cl","-","-","-","4-(Chloromethyl)-3-(2,6-dichlorophenyl)-5-methylisoxazole","61.0 - 63.0","?C","335.0","K","","","","","","-","","-","","-","","-"
"BrCC(=O)C1=CC(=CC=C1)C#N","-","-","-","3-(2-Bromoacetyl)benzonitrile","67.0 - 70.0","?C","341.5","K","","","","","","-","","-","","-","","-"
"FC(F)(F)C1=CC(=CC(=C1)C(=O)CBr)C(F)(F)F","-","-","-","2-Bromo-1-[3,5-di(trifluoromethyl)phenyl]ethan-1-one","48.0 - 50.0","?C","322.0","K","","","","","","-","","-","","-","","-"
"NC1=C(N)C=C(C=C1)C#N","-","-","-","3,4-Diaminobenzonitrile","144.0 - 145.0","?C","417.5","K","","","","","","-","","-","","-","","-"
"CC1=CC(=NN1)C(O)=O","-","-","-","5-Methyl-1H-pyrazole-3-carboxylic acid","241.0 - 242.0","?C","514.5","K","","","","","","-","","-","","-","","-"
"ClS(=O)(=O)C1=CC=CC=C1I","-","-","-","2-Iodobenzene-1-sulfonyl chloride","51.0 - 52.0","?C","324.5","K","","","","","","-","","-","","-","","-"
"COC1=NC=CC=C1N","-","-","-","2-Methoxypyridin-3-amine","67.0 - 68.0","?C","340.5","K","","","","","","-","","-","","-","","-"
"CC1=NN=C(S)N1C1=CC=C(OCC2=CC=CC=C2)C=C1","-","-","-","4-[4-(Benzyloxy)phenyl]-5-methyl-4H-1,2,4-triazole-3-thiol","255.0 - 257.0","?C","529.0","K","","","","","","-","","-","","-","","-"
"SC1=NN=C(N1C1=CC=C(OCC2=CC=CC=C2)C=C1)C1=CC=CO1","-","-","-","4-[4-(Benzyloxy)phenyl]-5-(2-furyl)-4H-1,2,4-triazole-3-thiol","236.0 - 238.0","?C","510.0","K","","","","","","-","","-","","-","","-"
"NNC(=S)NC1=CC=C(OCC2=CC=CC=C2)C=C1","-","-","-","N-[4-(Benzyloxy)phenyl]hydrazine-1-carbothioamide","167.0 - 170.0","?C","441.5","K","","","","","","-","","-","","-","","-"
"NC1=C(N=NS1)C1=CC=CC=C1","-","-","-","4-Phenyl-1,2,3-thiadiazol-5-amine","144.0 - 147.0","?C","418.5","K","","","","","","-","","-","","-","","-"
"CC(=O)C1=CC(=NO1)C1=C(Cl)C=CC=C1Cl","-","-","-","1-[3-(2,6-Dichlorophenyl)isoxazol-5-yl]ethan-1-one","117.0 - 119.0","?C","391.0","K","","","","","","-","","-","","-","","-"
"COC1=CC=C(OCC(N)=O)C=C1","-","-","-","2-(4-Methoxyphenoxy)acetamide","114.0 - 116.0","?C","388.0","K","","","","","","-","","-","","-","","-"
"COC1=CC=CC=C1OCC(N)=O","-","-","-","2-(2-Methoxyphenoxy)acetamide","142.0","?C","415.0","K","","","","","","-","","-","","-","","-"
"CC(C)(C)OC(=O)NC(CC1=CC=CC=C1)C(=O)NN","-","-","-","tert-Butyl N-(1-benzyl-2-hydrazino-2-oxoethyl)carbamate","131.0 - 136.0","?C","406.5","K","","","","","","-","","-","","-","","-"
"CCOC(=O)C1=CC(=NN1CC1=C(C)C=C(C)C=C1C)C(C)(C)C","-","-","-","Ethyl 3-(tert-butyl)-1-(mesitylmethyl)-1H-pyrazole-5-carboxylate","72.0 - 74.0","?C","346.0","K","","","","","","-","","-","","-","","-"
"CC1=CC(CN2N=C(C=C2C2=NN=C(S)O2)C(C)(C)C)=CC=C1","-","-","-","5-[3-(tert-Butyl)-1-(3-methylbenzyl)-1H-pyrazol-5-yl]-1,3,4-oxadiazole-2-thiol","129.0 - 131.0","?C","403.0","K","","","","","","-","","-","","-","","-"
"CN1C(S)=NN=C1C1=CC(=NN1CC1=C(Cl)C=C(Cl)C=C1)C(C)(C)C","-","-","-","5-[3-(tert-Butyl)-1-(2,4-dichlorobenzyl)-1H-pyrazol-5-yl]-4-methyl-4H-1,2,4-triazole","191.0 - 194.0","?C","465.5","K","","","","","","-","","-","","-","","-"
"OCCCCNC(=O)OCC1C2=C(C=CC=C2)C2=C1C=CC=C2","-","-","-","9H-Fluoren-9-ylmethyl N-(4-hydroxybutyl)carbamate","115.0 - 117.0","?C","389.0","K","","","","","","-","","-","","-","","-"
"OCCCCCCNC(=O)OCC1C2=C(C=CC=C2)C2=C1C=CC=C2","-","-","-","9H-Fluoren-9-ylmethyl N-(6-hydroxyhexyl)carbamate","119.0 - 120.0","?C","392.5","K","","","","","","-","","-","","-","","-"
"N#CCC1=NC(=CS1)C1=CC2=C(OCCO2)C=C1","-","-","-","2-[4-(2,3-Dihydro-1,4-benzodioxin-6-yl)-1,3-thiazol-2-yl]acetonitrile","116.0 - 118.0","?C","390.0","K","","","","","","-","","-","","-","","-"
"CC(C)(C)OC(=O)NCCC(N)=S","-","-","-","tert-Butyl N-(3-amino-3-thioxopropyl)carbamate","109.0 - 112.0","?C","383.5","K","","","","","","-","","-","","-","","-"
"ClC1=NC(=NS1)C1=CC=C(S1)S(Cl)(=O)=O","-","-","-","5-(5-Chloro-1,2,4-thiadiazol-3-yl)thiophene-2-sulfonyl chloride","71.0 - 74.0","?C","345.5","K","","","","","","-","","-","","-","","-"
"ON=CC1=CC(Br)=C(O)C(Br)=C1","-","-","-","3,5-Dibromo-4-hydroxybenzaldehyde oxime","198.0 - 201.0","?C","472.5","K","","","","","","-","","-","","-","","-"
"CCOC(=O)C1CCN(CC2=CC(N)=CC=C2)CC1","-","-","-","Ethyl 1-(3-aminobenzyl)piperidine-4-carboxylate","42.0 - 46.0","?C","317.0","K","","","","","","-","","-","","-","","-"
"CC1=CC(=NN1C(C)(C)C)C(=O)NN","-","-","-","1-(tert-Butyl)-5-methyl-1H-pyrazole-3-carbohydrazide","85.0 - 88.0","?C","359.5","K","","","","","","-","","-","","-","","-"
"NCC1=C(Br)SC=C1","-","-","-","(2-Bromo-3-thienyl)methylamine hydrochloride","199.0 - 202.0","?C","473.5","K","","","","","","-","","-","","-","","-"
"CN1C=C(NC(=O)OC(C)(C)C)C=C1C(O)=O","-","-","-","4-[(tert-Butoxycarbonyl)amino]-1-methyl-1H-pyrrole-2-carboxylic acid","138.0 - 143.0","?C","413.5","K","","","","","","-","","-","","-","","-"
"CC(C)(C)OC(=O)NCC1CCNCC1","-","-","-","tert-Butyl N-(4-piperidinylmethyl)carbamate","106.0 - 108.0","?C","380.0","K","","","","","","-","","-","","-","","-"
"CS(=O)(=O)C1=CC=C(C=C1)C(=O)CBr","-","-","-","2-Bromo-1-[4-(methylsulfonyl)phenyl]-1-ethanone","126.0 - 128.0","?C","400.0","K","","","","","","-","","-","","-","","-"
"CCOC(=O)CCC(=O)OC(C(=O)C1=CC=CC=C1)C1=CC=CC=C1","-","-","-","1-Ethyl 4-(2-oxo-1,2-diphenylethyl) succinate","48.0 - 57.0","?C","325.5","K","","","","","","-","","-","","-","","-"
"NC1=CC(F)=CC=C1N1C=CN=C1","-","-","-","5-Fluoro-2-(1H-imidazol-1-yl)aniline","127.0","?C","400.0","K","","","","","","-","","-","","-","","-"
"CC(C)(C)N1N=C(C(C#N)=C1N)C1=CC=C(Cl)C=C1","-","-","-","5-Amino-1-(tert-butyl)-3-(4-chlorophenyl)-1H-pyrazole-4-carbonitrile","154.0 - 155.0","?C","427.5","K","","","","","","-","","-","","-","","-"
"ClC(=O)C1=CC2=C(Cl)C=C(Cl)C=C2N1","-","-","-","4,6-Dichloro-1H-indole-2-carbonyl chloride","173.0 - 175.0","?C","447.0","K","","","","","","-","","-","","-","","-"
"CC(C)NC1=CC=C(C=C1[N+]([O-])=O)C(F)(F)F","-","-","-","N1-Isopropyl-2-nitro-4-(trifluoromethyl)aniline","103.0 - 105.0","?C","377.0","K","","","","","","-","","-","","-","","-"
"NC(=O)C1=C(Cl)C=C(F)C=C1","-","-","-","2-Chloro-4-fluorobenzamide","152.0 - 154.0","?C","426.0","K","","","","","","-","","-","","-","","-"
"NC1=NC(S)=NC(S)=N1","-","-","-","6-Amino-1,3,5-triazine-2,4-dithiol","300.0","?C","573.0","K","","","","","","-","","-","","-","","-"
"CC(=O)NC1=C(C=C(C=C1)C#N)C(F)(F)F","-","-","-","N1-[4-Cyano-2-(trifluoromethyl)phenyl]acetamide","169.0 - 171.0","?C","443.0","K","","","","","","-","","-","","-","","-"
"CC(=O)NC1=CC(Cl)=C(Cl)C=C1[N+]([O-])=O","-","-","-","N1-(4,5-Dichloro-2-nitrophenyl)acetamide","126.0 - 128.0","?C","400.0","K","","","","","","-","","-","","-","","-"
"OC1=CC=CC(=C1)N1CCOCC1","-","-","-","3-Morpholinophenol","136.0 - 138.0","?C","410.0","K","","","","","","-","","-","","-","","-"
"COC(=O)C1=CC(C#N)=C(OC)C=C1","-","-","-","Methyl 3-cyano-4-methoxybenzoate","124.0 - 125.0","?C","397.5","K","","","","","","-","","-","","-","","-"
"CC1=C(C)C=C(C=C1)C(N)=O","-","-","-","3,4-Dimethylbenzamide","107.0 - 109.0","?C","381.0","K","","","","","","-","","-","","-","","-"
"[O-][N+](=O)C1=CC(C#N)=C(F)C=C1","-","-","-","2-Fluoro-5-nitrobenzonitrile","73.0 - 74.0","?C","346.5","K","","","","","","-","","-","","-","","-"
"SC1=C(C(=S)SS1)C1=CC=CC=C1","-","-","-","5-Mercapto-4-phenyl-3H-1,2-dithiole-3-thione","153.0 - 155.0","?C","427.0","K","","","","","","-","","-","","-","","-"
"NC1=CC=C(OC(F)(F)F)C=C1[N+]([O-])=O","-","-","-","2-Nitro-4-(trifluoromethoxy)aniline","62.0 - 64.0","?C","336.0","K","","","","","","-","","-","","-","","-"
"[O-][N+](=O)C1=C(Cl)C=C2C(=O)NC(=O)C2=C1","-","-","-","5-Chloro-6-nitroisoindoline-1,3-dione","201.0 - 202.0","?C","474.5","K","","","","","","-","","-","","-","","-"
"FC(F)(F)OC1=CC=C(C=C1)C(=O)CBr","-","-","-","2-Bromo-1-[4-(trifluoromethoxy)phenyl]ethan-1-one","55.0 - 58.0","?C","329.5","K","","","","","","-","","-","","-","","-"
"NC1=NC(Cl)=NC=C1C#N","-","-","-","4-Amino-2-chloropyrimidine-5-carbonitrile","250.0","?C","523.0","K","","","","","","-","","-","","-","","-"
"FC(F)OC1=CC=C(C=C1)C(=O)CBr","-","-","-","2-Bromo-1-[4-(difluoromethoxy)phenyl]ethan-1-one","63.0 - 65.0","?C","337.0","K","","","","","","-","","-","","-","","-"
"CCCNC(N)=O","-","-","-","N-Propylurea","107.0 - 109.0","?C","381.0","K","","","","","","-","","-","","-","","-"
"CC(=O)NC1=CC=C(OCC=C)C=C1","-","-","-","N1-[4-(Allyloxy)phenyl]acetamide","90.0 - 92.0","?C","364.0","K","","","","","","-","","-","","-","","-"
"CCOC(=O)CC1=CC=C(N)C=C1","-","-","-","Ethyl 4-aminophenylacetate","48.0 - 50.0","?C","322.0","K","","","","","","-","","-","","-","","-"
"CC(=O)C=C(C)N1CCCC1","-","-","-","4-Tetrahydro-1H-pyrrol-1-ylpent-3-en-2-one","114.0 - 116.0","?C","388.0","K","","","","","","-","","-","","-","","-"
"NS(=O)(=O)C1=CC=CC=C1Br","-","-","-","2-Bromobenzene-1-sulfonamide","192.0 - 193.0","?C","465.5","K","","","","","","-","","-","","-","","-"
"CC1=CC(N)=C(C=C1)C#N","-","-","-","2-Amino-4-methylbenzonitrile","92.0 - 93.0","?C","365.5","K","","","","","","-","","-","","-","","-"
"CC1=CC=C(C(O)=O)C(N)=C1","-","-","-","2-Amino-4-methylbenzoic acid","160.0 - 161.0","?C","433.5","K","","","","","","-","","-","","-","","-"
"NC(=O)C1=C(Cl)C(Cl)=CC=C1","-","-","-","2,3-Dichlorobenzamide","170.0 - 172.0","?C","444.0","K","","","","","","-","","-","","-","","-"
"OCC(=O)C1=CC=C(Br)C=C1","-","-","-","1-(4-Bromophenyl)-2-hydroxyethan-1-one","137.0 - 142.0","?C","412.5","K","","","","","","-","","-","","-","","-"
"CCC1CCC(C)(C)C2=C1C=C(C=C2)C(=O)CBr","-","-","-","2-Bromo-1-(5,5,8,8-tetramethyl-5,6,7,8-tetrahydronaphthalen-2-yl)ethan-1-one","65.0 - 68.0","?C","339.5","K","","","","","","-","","-","","-","","-"
"FC(F)(F)OC1=CC(=CC=C1C#N)C#N","-","-","-","2-(Trifluoromethoxy)terephthalonitrile","79.0 - 81.0","?C","353.0","K","","","","","","-","","-","","-","","-"
"CC(=O)NC1=CC=C(C=C1OC(F)(F)F)C#N","-","-","-","N1-[4-Cyano-2-(trifluoromethoxy)phenyl]acetamide","118.0 - 120.0","?C","392.0","K","","","","","","-","","-","","-","","-"
"OC(=O)C1=CC=C(C(O)=O)C(OC(F)(F)F)=C1","-","-","-","2-(Trifluoromethoxy)terephthalic acid","270.0 - 272.0","?C","544.0","K","","","","","","-","","-","","-","","-"
"NC1=C(OC(F)(F)F)C=C(C=C1)C(O)=O","-","-","-","4-Amino-3-(trifluoromethoxy)benzoic acid","168.0 - 169.0","?C","441.5","K","","","","","","-","","-","","-","","-"
"CC1=CC=C(C=C1Cl)C(O)=O","-","-","-","3-Chloro-4-methylbenzoic acid","208.0 - 209.0","?C","481.5","K","","","","","","-","","-","","-","","-"
"CC1=C(C=C(F)C=C1)C(N)=O","-","-","-","5-Fluoro-2-methylbenzamide","120.0 - 122.0","?C","394.0","K","","","","","","-","","-","","-","","-"
"CCC1CCC(C)(C)C2=C1C=C(C=C2)C(C)=NO","-","-","-","1-(5,5,8,8-Tetramethyl-5,6,7,8-tetrahydronaphthalen-2-yl)ethan-1-one oxime","140.0 - 142.0","?C","414.0","K","","","","","","-","","-","","-","","-"
"COC(=O)C1=CC=C(N)C(C)=C1","-","-","-","Methyl 4-amino-3-methylbenzoate","116.0 - 117.0","?C","389.5","K","","","","","","-","","-","","-","","-"
"CC(=O)NC1=CC2=C(C=C1)C(=O)CC2","-","-","-","N1-(1-Oxo-2,3-dihydro-1H-inden-5-yl)acetamide","172.0","?C","445.0","K","","","","","","-","","-","","-","","-"
"CCOC(=O)C1=CC(Cl)=CC(Cl)=C1","-","-","-","Ethyl 3,5-dichlorobenzoate","35.0 - 36.0","?C","308.5","K","","","","","","-","","-","","-","","-"
"CC1=C(Cl)C=C(N)C(N)=C1","-","-","-","4-Chloro-5-methylbenzene-1,2-diamine","137.0 - 140.0","?C","411.5","K","","","","","","-","","-","","-","","-"
"NNC(=O)C1=CC(Cl)=C(Cl)C=C1","-","-","-","3,4-Dichlorobenzene-1-carbohydrazide","154.0 - 160.0","?C","430.0","K","","","","","","-","","-","","-","","-"
"CC1=CC(N)=C(C=C1)C(N)=O","-","-","-","2-Amino-4-methylbenzamide","147.0 - 148.0","?C","420.5","K","","","","","","-","","-","","-","","-"
"NNC(=O)C1=CC(=CC=C1)C(F)(F)F","-","-","-","3-(Trifluoromethyl)benzene-1-carbohydrazide","111.0 - 113.0","?C","385.0","K","","","","","","-","","-","","-","","-"
"CCOC(=O)C1=CNC2=C(OC(F)(F)F)C=CC=C2C1=O","-","-","-","Ethyl 4-oxo-8-(trifluoromethoxy)-1,4-dihydroquinoline-3-carboxylate","235.0 - 240.0","?C","510.5","K","","","","","","-","","-","","-","","-"
"CC(=O)NC1=C(NC(C)=O)C=C(Cl)C(Cl)=C1","-","-","-","N1-[2-(Acetylamino)-4,5-dichlorophenyl]acetamide","255.0 - 258.0","?C","529.5","K","","","","","","-","","-","","-","","-"
"NC1=CC=C(C=C1)S(=O)(=O)N1CCCCC1","-","-","-","4-(Piperidinosulfonyl)aniline","169.0 - 170.0","?C","442.5","K","","","","","","-","","-","","-","","-"
"O=S(=O)(N1CCCCC1)C1=CC=C(C=C1)N=C=S","-","-","-","1-[(4-Isothiocyanatophenyl)sulfonyl]piperidine","126.0 - 127.0","?C","399.5","K","","","","","","-","","-","","-","","-"
"[O-][N+](=O)C1=CC=C(C=C1)S(=O)(=O)N1CCOCC1","-","-","-","4-[(4-Nitrophenyl)sulfonyl]morpholine","173.0 - 175.0","?C","447.0","K","","","","","","-","","-","","-","","-"
"[O-][N+](=O)C1=CC=C(C=C1)S(=O)(=O)N1CCCC1","-","-","-","1-[(4-Nitrophenyl)sulfonyl]pyrrolidine","151.0 - 153.0","?C","425.0","K","","","","","","-","","-","","-","","-"
"NC1=CC=C(C=C1)S(=O)(=O)N1CCOCC1","-","-","-","4-(Morpholinosulfonyl)aniline","216.0 - 218.0","?C","490.0","K","","","","","","-","","-","","-","","-"
"CCCCC1=CC=C(NC(C)=O)C=C1","-","-","-","N1-(4-Butylphenyl)acetamide","107.0 - 109.0","?C","381.0","K","","","","","","-","","-","","-","","-"
"OC(=O)C1=CC=CN=C1OC1=CC=C(F)C=C1","-","-","-","2-(4-Fluorophenoxy)nicotinic acid","187.0 - 189.0","?C","461.0","K","","","","","","-","","-","","-","","-"
"NC(=O)C1=C(N=CN1)C#N","-","-","-","4-Cyano-1H-imidazole-5-carboxamide","276.0 - 278.0","?C","550.0","K","","","","","","-","","-","","-","","-"
"COC(=O)C1=CC(OC2CCCC2)=C(OC)C=C1","-","-","-","Methyl 3-(cyclopentyloxy)-4-methoxybenzoate","59.0 - 61.0","?C","333.0","K","","","","","","-","","-","","-","","-"
"COC1=CC=C(OC)C(=C1)S(N)(=O)=O","-","-","-","2,5-Dimethoxybenzene-1-sulfonamide","150.0 - 152.0","?C","424.0","K","","","","","","-","","-","","-","","-"
"CC1=C(C=CC(Cl)=C1)C(O)=O","-","-","-","4-Chloro-2-methylbenzoic acid","172.0 - 173.0","?C","445.5","K","","","","","","-","","-","","-","","-"
"CC(C)(C)OC(=O)N1CCC(CC1)C(N)=O","-","-","-","tert-Butyl 4-(aminocarbonyl)tetrahydropyridine-1(2H)-carboxylate","163.0 - 164.0","?C","436.5","K","","","","","","-","","-","","-","","-"
"CC(C)(C)OC(=O)N1CCC(CC1)C(N)=S","-","-","-","tert-Butyl 4-(aminocarbothioyl)tetrahydropyridine-1(2H)-carboxylate","130.0 - 131.0","?C","403.5","K","","","","","","-","","-","","-","","-"
"ClCC1CN(CC2=CC=CC=C2)CCO1","-","-","-","4-Benzyl-2-(chloromethyl)morpholine","46.0 - 50.0","?C","321.0","K","","","","","","-","","-","","-","","-"
"CN1C=NC(=C1)S(N)(=O)=O","-","-","-","1-Methyl-1H-imidazole-4-sulfonamide","222.0 - 224.0","?C","496.0","K","","","","","","-","","-","","-","","-"
"NC(CC1=C(Cl)C=C(F)C=C1)=NO","-","-","-","2-(2-Chloro-4-fluorophenyl)-N'-hydroxyethanimidamide","146.0 - 147.0","?C","419.5","K","","","","","","-","","-","","-","","-"
"CC1=NC(CC(O)=O)=C(C)S1","-","-","-","2-(2,5-Dimethyl-1,3-thiazol-4-yl)acetic acid","110.0 - 113.0","?C","384.5","K","","","","","","-","","-","","-","","-"
"O=C1N(CC2CNCCO2)C(=O)C2=C1C=CC=C2","-","-","-","2-(1,4-Oxazinan-2-ylmethyl)-1H-isoindole-1,3(2H)-dione","138.0 - 143.0","?C","413.5","K","","","","","","-","","-","","-","","-"
"OC(=O)C=CC1=CC=C(N2CCCC2)C(=C1)[N+]([O-])=O","-","-","-","3-(3-Nitro-4-tetrahydro-1H-pyrrol-1-ylphenyl)acrylic acid","243.0 - 245.0","?C","517.0","K","","","","","","-","","-","","-","","-"
"CC1=CC=C(SC2=CC=C(C=C2C=O)[N+]([O-])=O)C=C1","-","-","-","2-[(4-Methylphenyl)thio]-5-nitrobenzaldehyde","157.0 - 158.0","?C","430.5","K","","","","","","-","","-","","-","","-"