"SMILES","CASRN","EXTERNALID","N","NAME","Melting Point","UNIT {Melting Point}","Melting Point {measured, converted}","UNIT {Melting Point}","Dataset","comment (property)","comment (chemical)","measurement method","Pressure","UNIT {Pressure}","Som set numeric condition","UNIT {Som set numeric condition}","Resp set numeric condition","UNIT {Resp set numeric condition}","Quality code","UNIT {Quality code}"
"COC1=CC=C(C=C1)[Si](CC=C)(C(C)C)C(C)C","-","-","-","Allyl(diisopropyl)(4-methoxyphenyl)silane","135.0 - 136.0","?C","408.5","K","","","","","","-","","-","","-","","-"
"CC(=O)NC1=CC(Cl)=C(Br)C=C1","-","-","-","N1-(4-bromo-3-chlorophenyl)acetamide","125.0 - 128.0","?C","399.5","K","","","","","","-","","-","","-","","-"
"CCCCCN1C(O)=NN=C1S","-","-","-","5-Mercapto-4-pentyl-4H-1,2,4-triazol-3-ol","146.0 - 149.0","?C","420.5","K","","","","","","-","","-","","-","","-"
"CC1=C(CCCO1)C(O)=O","-","-","-","6-Methyl-3,4-dihydro-2H-pyran-5-carboxylic acid","119.0","?C","392.0","K","","","","","","-","","-","","-","","-"
"CC(C)(C)NC(=O)NN","-","-","-","N1-(tert-Butyl)hydrazine-1-carboxamide","119.0 - 120.0","?C","392.5","K","","","","","","-","","-","","-","","-"
"CC(=O)C1=CC=C(OCCCCCBr)C=C1O","-","-","-","1-{4-[(5-Bromopentyl)oxy]-2-hydroxyphenyl}ethan-1-one","63.0 - 66.0","?C","337.5","K","","","","","","-","","-","","-","","-"
"CC1=CC=C2C=C(C=O)C=CC2=N1","-","-","-","2-Methyl-6-quinolinecarbaldehyde","96.0 - 99.0","?C","370.5","K","","","","","","-","","-","","-","","-"
"OC(=O)C1=CC=C(C=C1)C1=CC=CO1","-","-","-","4-(2-Furyl)benzoic acid","231.0 - 232.0","?C","504.5","K","","","","","","-","","-","","-","","-"
"ClC(=O)C1=CC=C(C=C1)C1=CC=CO1","-","-","-","4-(2-Furyl)benzoyl chloride","101.0 - 103.0","?C","375.0","K","","","","","","-","","-","","-","","-"
"O=CC1=CC=C(C=C1)C1=NC=CC=C1","-","-","-","4-(2-Pyridinyl)benzaldehyde","51.0 - 53.0","?C","325.0","K","","","","","","-","","-","","-","","-"
"OC(=O)C1=CC(=NC=C1)N1CCOCC1","-","-","-","2-Morpholinoisonicotinic acid","180.0","?C","453.0","K","","","","","","-","","-","","-","","-"
"ClC(=O)C1=C2OCCOC2=CS1","-","-","-","2,3-Dihydrothieno[3,4-b][1,4]dioxin-5-carbonyl chloride","75.0 - 76.0","?C","348.5","K","","","","","","-","","-","","-","","-"
"CC1=NN(C(C)=C1CO)C1=CC=CC=C1","-","-","-","(3,5-Dimethyl-1-phenyl-1H-pyrazol-4-yl)methanol","106.0 - 110.0","?C","381.0","K","","","","","","-","","-","","-","","-"
"CC(=O)C1CC(CC(O)=O)C1(C)C","-","-","-","cis-Pinonic acid","104.0 - 107.0","?C","378.5","K","","","","","","-","","-","","-","","-"
"ON=CC=CC1=CC=CC=C1","-","-","-","3-Phenylacrylaldehyde oxime","115.0 - 125.0","?C","393.0","K","","","","","","-","","-","","-","","-"
"CC(C)CC1=CC=C(C=C1)C(=O)C=CC1=CC(=CC=C1)[N+]([O-])=O","-","-","-","1-(4-Isobutylphenyl)-3-(3-nitrophenyl)prop-2-en-1-one","104.0 - 107.0","?C","378.5","K","","","","","","-","","-","","-","","-"
"CN1N=C(CCl)C2=C1C=CC=C2","-","-","-","3-(Chloromethyl)-1-methyl-1H-indazole","62.0 - 63.0","?C","335.5","K","","","","","","-","","-","","-","","-"
"CNCC1=CSC(=N1)C1CCN(CC1)C(=O)OC(C)(C)C","-","-","-","tert-Butyl 4-{4-[(methylamino)methyl]-1,3-thiazol-2-yl}piperidine-1-carboxylate","43.0 - 47.0","?C","318.0","K","","","","","","-","","-","","-","","-"
"CC1=NN(C(=O)OC(C)(C)C)C(C)=C1I","-","-","-","tert-Butyl 4-iodo-3,5-dimethyl-1H-pyrazole-1-carboxylate","56.0 - 58.0","?C","330.0","K","","","","","","-","","-","","-","","-"
"CC1=NC(=CS1)C1=CC=C(C=C1)C(Cl)=O","-","-","-","4-(2-Methyl-1,3-thiazol-4-yl)benzoyl chloride","120.0 - 122.0","?C","394.0","K","","","","","","-","","-","","-","","-"
"CN1N=C2C=CC=CC2=C1C(Cl)=O","-","-","-","2-Methyl-2H-indazole-3-carbonyl chloride","89.0 - 90.0","?C","362.5","K","","","","","","-","","-","","-","","-"
"CN1N=C(C=C1C1=CC=CC=C1)C(Cl)=O","-","-","-","1-Methyl-5-phenyl-1H-pyrazole-3-carbonyl chloride","80.0 - 82.0","?C","354.0","K","","","","","","-","","-","","-","","-"
"CN1N=C(C=C1C(O)=O)C1=CC=CC=C1","-","-","-","1-methyl-3-phenyl-1H-pyrazole-5-carboxylic acid","186.0 - 187.0","?C","459.5","K","","","","","","-","","-","","-","","-"
"CN1N=C(C=C1C(Cl)=O)C1=CC=CC=C1","-","-","-","1-Methyl-3-phenyl-1H-pyrazole-5-carbonyl chloride","88.0 - 89.0","?C","361.5","K","","","","","","-","","-","","-","","-"
"CN1N=C(C=C1C1=CC=CS1)C(O)=O","-","-","-","1-Methyl-5-thien-2-yl-1H-pyrazole-3-carboxylic acid","156.0 - 158.0","?C","430.0","K","","","","","","-","","-","","-","","-"
"CC(=O)CC(O)C(Cl)(Cl)Cl","-","-","-","5,5,5-Trichloro-4-hydroxypentan-2-one","75.0 - 76.0","?C","348.5","K","","","","","","-","","-","","-","","-"
"CN1C(S)=NN=C1CNC(=O)OC(C)(C)C","-","-","-","tert-Butyl N-[(5-mercapto-4-methyl-4H-1,2,4-triazol-3-yl)methyl]carbamate","168.0 - 169.0","?C","441.5","K","","","","","","-","","-","","-","","-"
"CNC1=NN=C(S)S1","-","-","-","5-(methylamino)-1,3,4-thiadiazole-2-thiol","190.0 - 193.0","?C","464.5","K","","","","","","-","","-","","-","","-"
"OC1=C(C=O)C=C(C=O)C=C1C=O","-","-","-","2-Hydroxybenzene-1,3,5-tricarbaldehyde","179.0 - 180.0","?C","452.5","K","","","","","","-","","-","","-","","-"
"O=CC1=CC2=NC=CN=C2S1","-","-","-","Thieno[2,3-b]pyrazine-6-carbaldehyde","108.0 - 109.0","?C","381.5","K","","","","","","-","","-","","-","","-"
"BrC1=C(N=C(S1)C1=CC=CC=C1)C1=CC=CC=C1","-","-","-","5-Bromo-2,4-diphenyl-1,3-thiazole","88.0 - 89.0","?C","361.5","K","","","","","","-","","-","","-","","-"
"CC(C)(C)OC(=O)N1CCN(CC1)C1=CC=C(C=N1)C(O)=O","-","-","-","6-[4-(tert-Butoxycarbonyl)piperazin-1-yl]nicotinic acid","298.0 - 300.0","?C","572.0","K","","","","","","-","","-","","-","","-"
"CC(C)(C)OC(=O)N1CCN(CC1)C1=CC=C(CO)C=N1","-","-","-","tert-Butyl 4-[5-(hydroxymethyl)pyrid-2-yl]piperazine-1-carboxylate","112.0 - 115.0","?C","386.5","K","","","","","","-","","-","","-","","-"
"CN1CCN(CC2=CC=C(I)C=C2)CC1","-","-","-","1-(4-Iodobenzyl)-4-methylpiperazine","105.0 - 106.0","?C","378.5","K","","","","","","-","","-","","-","","-"
"CN(N)C1=CC=C(C=C1[N+]([O-])=O)C(F)(F)F","-","-","-","1-Methyl-1-[2-nitro-4-(trifluoromethyl)phenyl]hydrazine","68.0 - 70.0","?C","342.0","K","","","","","","-","","-","","-","","-"
"ClC1=CC=C(Cl)C(=C1)C#N","-","-","-","2,5-Dichlorobenzonitrile","130.0 - 132.0","?C","404.0","K","","","","","","-","","-","","-","","-"
"OC(=O)C1=CC=C(OC2=CC=CC=C2)O1","-","-","-","5-Phenoxy-2-furoic acid","126.0 - 127.0","?C","399.5","K","","","","","","-","","-","","-","","-"
"O=C1CSCC(=O)O1","-","-","-","1,4-Oxathiane-2,6-dione","94.0 - 97.0","?C","368.5","K","","","","","","-","","-","","-","","-"
"CC1=CC=C(C=CC(=O)C2=CC(=CC=C2)[N+]([O-])=O)C=C1","-","-","-","3-(4-Methylphenyl)-1-(3-nitrophenyl)prop-2-en-1-one","143.0 - 146.0","?C","417.5","K","","","","","","-","","-","","-","","-"
"COC(=O)C1=CC=CC=C1S(N)(=O)=O","-","-","-","Methyl 2-(aminosulfonyl)benzoate","125.0 - 127.0","?C","399.0","K","","","","","","-","","-","","-","","-"
"COC1=CC=C(C=C1C(F)(F)F)[N+]([O-])=O","-","-","-","1-Methoxy-4-nitro-2-(trifluoromethyl)benzene","79.0 - 81.0","?C","353.0","K","","","","","","-","","-","","-","","-"
"ClC1=C(Cl)C(Cl)=C(C=C1)S(Cl)(=O)=O","-","-","","2,3,4-trichlorobenzene-1-sulfonyl chloride","63.0 - 65.0","?C","337.0","K","","","","","","-","","-","","-","","-"
"CCCCCCNC(=S)NCCCCCC","-","-","-","N,N'-Dihexylthiourea","39.0 - 41.0","?C","313.0","K","","","","","","-","","-","","-","","-"
"CCOC(=O)C(Br)C(Br)C1=CC=CC=C1","-","-","-","Ethyl 2,3-dibromo-3-phenylpropanoate","77.0 - 79.0","?C","351.0","K","","","","","","-","","-","","-","","-"
"CC(=O)C1=C(OCC=C)C=CC=C1O","-","-","-","1-[2-(Allyloxy)-6-hydroxyphenyl]ethan-1-one","45.5 - 46.5","?C","319.0","K","","","","","","-","","-","","-","","-"
"COC1=CC=C(OC)C(C(C)=O)=C1O","-","-","-","1-(2-Hydroxy-3,6-dimethoxyphenyl)ethan-1-one","49.0 - 51.0","?C","323.0","K","","","","","","-","","-","","-","","-"
"ClCC1=NOC(=C1)C1=CC=CS1","-","-","-","3-(Chloromethyl)-5-thien-2-ylisoxazole","32.0 - 34.0","?C","306.0","K","","","","","","-","","-","","-","","-"
"N#CC1=CC=C(C=C1)C1=CC=CO1","-","-","-","4-(2-Furyl)benzonitrile","66.0 - 67.0","?C","339.5","K","","","","","","-","","-","","-","","-"
"CCOC(=O)C1=C(N)SN=C1C","-","-","-","Ethyl 5-amino-3-methylisothiazole-4-carboxylate","111.0 - 113.0","?C","385.0","K","","","","","","-","","-","","-","","-"
"CN(C)C1=CC=C(C=C1)P(=O)(C1=CC=C(C=C1)N(C)C)C1=CC=C(C=C1)N(C)C","-","-","-","N1,N1-Dimethyl-4-{di[4-(dimethylamino)phenyl]phosphoryl}aniline","275.0 - 280.0","?C","550.5","K","","","","","","-","","-","","-","","-"
"CC1=NN(C(C)=C1C(Cl)=O)C1=CC=CC=C1","-","-","-","3,5-Dimethyl-1-phenyl-1H-pyrazole-4-carbonyl chloride","58.0 - 59.0","?C","331.5","K","","","","","","-","","-","","-","","-"
"S(SC1=NC=CC=N1)C1=NC=CC=N1","-","-","-","Dipyrimidin-2-yl disulfide","139.0 - 141.0","?C","413.0","K","","","","","","-","","-","","-","","-"
"ClC(Cl)N(C(Cl)Cl)C(Cl)Cl","-","-","-","Tris(dichloromethyl)amine","170.0 - 173.0","?C","444.5","K","","","","","","-","","-","","-","","-"
"CC1=NC(CCl)=C(C)O1","-","-","-","4-(Chloromethyl)-2,5-dimethyl-1,3-oxazole","34.0 - 37.0","?C","308.5","K","","","","","","-","","-","","-","","-"
"ClS(=O)(=O)C1=C(N=C(S1)C1=CC=CC=C1)C1=CC=CC=C1","-","-","-","2,4-Diphenyl-1,3-thiazole-5-sulfonyl chloride","173.0 - 174.0","?C","446.5","K","","","","","","-","","-","","-","","-"
"OCC1=CC(=CC=C1)C1=CC=CS1","-","-","-","(3-Thien-2-ylphenyl)methanol","46.0 - 49.0","?C","320.5","K","","","","","","-","","-","","-","","-"
"CN1CCN(CC2=CC=CC(CO)=C2)CC1","-","-","-","{3-[(4-Methylpiperazin-1-yl)methyl]phenyl}methanol","51.0 - 52.0","?C","324.5","K","","","","","","-","","-","","-","","-"
"O=S1(=O)CCN(CC2=CC=CS2)CC1","-","-","-","4-(2-Thienylmethyl)-1lambda6,4-thiazinane-1,1-dione","126.0 - 128.0","?C","400.0","K","","","","","","-","","-","","-","","-"
"NC(=O)CSSCC(N)=O","-","-","-","2-[(2-Amino-2-oxoethyl)dithio]acetamide","161.5 - 162.5","?C","435.0","K","","","","","","-","","-","","-","","-"
"CN1C2=C(N(CC(O)=O)C(Cl)=N2)C(=O)N(C)C1=O","-","-","-","2-(8-Chloro-1,3-dimethyl-2,6-dioxo-1,2,3,6-tetrahydro-7H-purin-7-yl)acetic acid","198.0 - 199.0","?C","471.5","K","","","","","","-","","-","","-","","-"
"CCOC(=O)\C=C\C1=CC=C(O)C(OC)=C1","-","-","-","Ethyl 3-(4-hydroxy-3-methoxyphenyl)acrylate","57.0 - 59.0","?C","331.0","K","","","","","","-","","-","","-","","-"
"CC(C)(C)C1=CC(CC(O)=O)=CC(=C1O)C(C)(C)C","-","-","-","2-[3,5-Di(tert-butyl)-4-hydroxyphenyl]acetic acid","157.0 - 158.0","?C","430.5","K","","","","","","-","","-","","-","","-"
"N#CC1=CC=C(OCC2=CC3=NON=C3C=C2)C=C1","-","-","-","4-(2,1,3-Benzoxadiazol-5-ylmethoxy)benzonitrile","159.5 - 162.0","?C","433.8","K","","","","","","-","","-","","-","","-"
"CN1NC(=O)C2=C1C1=C(N=C2)N(C)N=C1C","-","-","-","1,6,8-Trimethyl-1,2,3,6-tetrahydrodipyrazolo[3,4-b,3,4-d]pyridin-3-one","300.0","?C","573.0","K","","","","","","-","","-","","-","","-"
"CC(=O)NC1=C(F)C=CC(=C1F)[N+]([O-])=O","-","-","-","N1-(2,6-Difluoro-3-nitrophenyl)acetamide","148.0 - 149.0","?C","421.5","K","","","","","","-","","-","","-","","-"
"CC1=C(C(Cl)=CC(Cl)=C1)S(N)(=O)=O","-","-","-","2,4-Dichloro-6-methylbenzenesulfonamide","168.0 - 170.0","?C","442.0","K","","","","","","-","","-","","-","","-"
"OC1=C(O)C=C(C=C1)C#N","-","-","-","3,4-Dihydroxybenzonitrile","154.0 - 156.0","?C","428.0","K","","","","","","-","","-","","-","","-"
"CC(C)(C)OC(=O)N1CCN(CC1)C1=CC=C(CN)C=C1","-","-","-","4-[4-(Aminomethyl)-phenyl]-tetrahydro-1(2H)-pyrazincarbonsure-tert.-butylester","83.0 - 87.0","?C","358.0","K","","","","","","-","","-","","-","","-"
"NCC1=CSC2=CC=C(Br)C=C12","-","-","-","(5-Bromo-3-benzo[b]thienyl)methylamine","37.0 - 38.0","?C","310.5","K","","","","","","-","","-","","-","","-"
"CN1C=CC2=C1C=CC(=C2)C(O)=O","-","-","-","1-Methyl-1H-indole-5-carboxylic acid","221.0 - 223.0","?C","495.0","K","","","","","","-","","-","","-","","-"
"CN1C=CC2=C1C=CC(=C2)S(Cl)(=O)=O","-","-","-","1-Methyl-1H-indole-5-sulfonyl chloride","79.0 - 80.0","?C","352.5","K","","","","","","-","","-","","-","","-"
"CN1C=CC2=C1C=CC(C=O)=C2","-","-","-","1-Methyl-1H-indole-5-carbaldehyde","84.0 - 86.0","?C","358.0","K","","","","","","-","","-","","-","","-"
"OCC1=CC=C(C=C1)C1=NC=CC=C1","-","-","-","(4-Pyrid-2-ylphenyl)methanol","49.0 - 51.0","?C","323.0","K","","","","","","-","","-","","-","","-"
"CCOC(=O)C1=NN(C)C(=C1)C1=CC=CO1","-","-","-","Ethyl 5-(2-furyl)-1-methyl-1H-pyrazole-3-carboxylate","63.0 - 64.0","?C","336.5","K","","","","","","-","","-","","-","","-"
"CN1N=C(C=C1C(O)=O)C1=CC=CO1","-","-","-","3-(2-Furyl)-1-methyl-1H-pyrazole-5-carboxylic acid","130.0","?C","403.0","K","","","","","","-","","-","","-","","-"
"CCOC(=O)C1=CC(=NN1C)C1=CC=CO1","-","-","-","Ethyl 3-(2-furyl)-1-methyl-1H-pyrazole-5-carboxylate","57.0 - 58.0","?C","330.5","K","","","","","","-","","-","","-","","-"
"[O-][N+](=O)C1=C(CC#N)C=C(Cl)C=C1","-","-","-","2-(5-Chloro-2-nitrophenyl)acetonitrile","87.0","?C","360.0","K","","","","","","-","","-","","-","","-"
"OC(=O)C(=O)CBr","-","-","-","3-Bromopyruvic acid hydrate","79.0 - 82.0","?C","353.5","K","","","","","","-","","-","","-","","-"
"OC(=O)C1=CC2=NC=CN=C2S1","-","-","-","Thieno[2,3-b]pyrazine-6-carboxylic acid","220.0","?C","493.0","K","","","","","","-","","-","","-","","-"
"BrC1=NC(=CC=C1)N1CCCC1","-","-","-","2-Bromo-6-pyrrolidin-1-ylpyridine","86.0 - 88.0","?C","360.0","K","","","","","","-","","-","","-","","-"
"BrC1=CC=C(CN2C=CN=C2)C=C1","-","-","-","1-(4-Bromobenzyl)-1H-imidazole","75.0 - 80.0","?C","350.5","K","","","","","","-","","-","","-","","-"
"OCC1=CC(CN2C=NC=N2)=CC=C1","-","-","-","[3-(1H-1,2,4-Triazol-1-ylmethyl)phenyl]methanol","56.0 - 59.0","?C","330.5","K","","","","","","-","","-","","-","","-"
"ClS(=O)(=O)C1=CC2=C(OCC(=O)N2)C=C1","-","-","-","3-Oxo-3,4-dihydro-2H-1,4-benzoxazine-6-sulfonyl chloride","178.0","?C","451.0","K","","","","","","-","","-","","-","","-"
"CN1N=C(C=C1C1=CC=CO1)C(Cl)=O","-","-","-","5-(2-Furyl)-1-methyl-1H-pyrazole-3-carbonyl chloride","60.0 - 61.0","?C","333.5","K","","","","","","-","","-","","-","","-"
"CN1N=C(C=C1C(O)=O)C1=CC=CS1","-","-","-","1-Methyl-3-thien-2-yl-1H-pyrazole-5-carboxylic acid","173.0 - 174.0","?C","446.5","K","","","","","","-","","-","","-","","-"
"ClC(=O)C1=CC=CC=C1OC1=CC=CC=C1","-","-","-","2-Phenoxybenzoyl chloride","37.0 - 39.0","?C","311.0","K","","","","","","-","","-","","-","","-"
"FC1=C(CS(Cl)(=O)=O)C=CC=C1","-","-","-","(2-Fluorophenyl)methanesulfonyl chloride","55.0 - 56.0","?C","328.5","K","","","","","","-","","-","","-","","-"
"CC1=C(Cl)C(O)=NC(=N1)C1=CC=CC=N1","-","-","-","5-Chloro-6-methyl-2-(2-pyridyl)pyrimidin-4-ol","142.0 - 144.0","?C","416.0","K","","","","","","-","","-","","-","","-"
"OC(=O)CC1=COC2=C1C=CC=C2","-","-","-","Benzo[b]furan-3-ylacetic acid","90.0 - 93.0","?C","364.5","K","","","","","","-","","-","","-","","-"
"CCOC(=O)C(=O)NC1=CC(=CC(=C1)C(F)(F)F)C(F)(F)F","-","-","-","Ethyl 2-[3,5-di(trifluoromethyl)anilino]-2-oxoacetate","90.0 - 92.0","?C","364.0","K","","","","","","-","","-","","-","","-"
"CN1CCC(C(CO)C1)C1=CC=C(F)C=C1","-","-","-","(3S,4R)-4-(4'-Fluorophenyl)-3-hydroxymethyl-1-methylpiperidine","97.0 - 101.0","?C","372.0","K","","","","","","-","","-","","-","","-"
"[O-][N+](=O)C1=CC(Cl)=C(Cl)C=C1NC1=NC=CC=C1","-","-","-","N2-(4,5-Dichloro-2-nitrophenyl)pyridin-2-amine","156.0","?C","429.0","K","","","","","","-","","-","","-","","-"
"OC1=NC=CN=C1O","-","-","-","Pyrazine-2,3-diol","300.0","?C","573.0","K","","","","","","-","","-","","-","","-"
"CC1=C(N=C(O1)C1=CC=CC=C1)C(O)=O","-","-","-","5-Methyl-2-phenyl-1,3-oxazole-4-carboxylic acid","182.0 - 183.0","?C","455.5","K","","","","","","-","","-","","-","","-"
"CC1=C(N=C(O1)C1=CC=CC=C1)C(Cl)=O","-","-","-","5-Methyl-2-phenyl-1,3-oxazole-4-carbonyl chloride","135.0 - 136.0","?C","408.5","K","","","","","","-","","-","","-","","-"
"CC1=C(CCl)N=C(O1)C1=CC=CC=C1","-","-","-","4-(Chloromethyl)-5-methyl-2-phenyl-1,3-oxazole","83.0 - 84.0","?C","356.5","K","","","","","","-","","-","","-","","-"
"OC(=O)C1=CC(=CC=C1)N1C=NC=N1","-","-","-","3-(1H-1,2,4-Triazol-1-yl)benzoic acid","262.0 - 268.0","?C","538.0","K","","","","","","-","","-","","-","","-"
"CC1=NC(=NO1)C1=CC(Br)=CC=C1","-","-","-","3-(3-Bromophenyl)-5-methyl-1,2,4-oxadiazole","81.0 - 83.0","?C","355.0","K","","","","","","-","","-","","-","","-"
"IC1=CC(CN2CCOCC2)=CC=C1","-","-","-","4-(3-Iodobenzyl)morpholine","32.0 - 34.0","?C","306.0","K","","","","","","-","","-","","-","","-"
"BrCC1=C(N=C(S1)C1=CC=CC=C1)C1=CC=CC=C1","-","-","-","5-(Bromomethyl)-2,4-diphenyl-1,3-thiazole","112.0 - 114.0","?C","386.0","K","","","","","","-","","-","","-","","-"
"BrC1=CC=CC(CN2C=CN=C2)=C1","-","-","-","1-(3-Bromobenzyl)-1H-imidazole","62.0 - 70.0","?C","339.0","K","","","","","","-","","-","","-","","-"
"NC1=CC(CN2C=CN=C2)=CC=C1","-","-","-","3-(1H-Imidazol-1-ylmethyl)aniline","72.0 - 74.0","?C","346.0","K","","","","","","-","","-","","-","","-"
"CN1N=C2C=CC=CC2=C1C=O","-","-","-","2-Methyl-2H-indazole-3-carbaldehyde","75.0 - 77.0","?C","349.0","K","","","","","","-","","-","","-","","-"
"CN1CCN(CC2=CC=CC(I)=C2)CC1","-","-","-","1-(3-Iodobenzyl)-4-methylpiperazine","81.0 - 83.0","?C","355.0","K","","","","","","-","","-","","-","","-"
"IC1=CC(CN2C=NC=N2)=CC=C1","-","-","-","1-(3-Iodobenzyl)-1H-1,2,4-triazole","53.0 - 55.0","?C","327.0","K","","","","","","-","","-","","-","","-"
"CN1N=C(CCl)C=C1C1=CC=CC=C1","-","-","-","3-(Chloromethyl)-1-methyl-5-phenyl-1H-pyrazole","59.0 - 61.0","?C","333.0","K","","","","","","-","","-","","-","","-"
"CN1N=C(C=C1CCl)C1=CC=CC=C1","-","-","-","5-(Chloromethyl)-1-methyl-3-phenyl-1H-pyrazole","70.0 - 72.0","?C","344.0","K","","","","","","-","","-","","-","","-"
"CN1N=C(C=C1C(Cl)=O)C1=CC=CS1","-","-","-","1-Methyl-3-thien-2-yl-1H-pyrazole-5-carbonyl chloride","113.0 - 114.0","?C","386.5","K","","","","","","-","","-","","-","","-"
"NCC1=CC=C(C=C1)C1=CSC=C1","-","-","-","(4-Thien-3-ylphenyl)methylamine","116.0 - 117.0","?C","389.5","K","","","","","","-","","-","","-","","-"
"N#CC1=CC=C(C=C1)C1=CSC=C1","-","-","-","4-Thien-3-ylbenzonitrile","109.0 - 111.0","?C","383.0","K","","","","","","-","","-","","-","","-"
"BrCC1=CC=C(C=O)C=C1","-","-","-","4-(Bromomethyl)benzaldehyde","99.0 - 100.0","?C","372.5","K","","","","","","-","","-","","-","","-"
"NC1=C(SC2=NC=CN=C12)C(O)=O","-","-","-","7-Aminothieno[2,3-b]pyrazine-6-carboxylic acid","250.0","?C","523.0","K","","","","","","-","","-","","-","","-"
"FC(F)(F)C1=CC=C(CS(Cl)(=O)=O)C=C1","-","-","-","[4-(Trifluoromethyl)phenyl]methanesulfonyl chloride","104.0 - 106.0","?C","378.0","K","","","","","","-","","-","","-","","-"
"CC(C)(C)OC(=O)N1CC(=O)CC1C(O)=O","-","-","-","1-(tert-Butoxycarbonyl)-4-oxopyrrolidine-2-carboxylic acid","155.0 - 156.0","?C","428.5","K","","","","","","-","","-","","-","","-"
"CC1=C(CS(Cl)(=O)=O)C=CC=C1","-","-","-","(2-Methylphenyl)methanesulfonyl chloride","52.0 - 53.0","?C","325.5","K","","","","","","-","","-","","-","","-"
"CN1N=C(C=C1C1=CC=CS1)C(Cl)=O","-","-","-","1-Methyl-5-thien-2-yl-1H-pyrazole-3-carbonyl chloride","48.0 - 49.0","?C","321.5","K","","","","","","-","","-","","-","","-"
"CC(=O)NC1=CC(C)=NO1","-","-","-","N1-(3-Methyl-5-isoxazolyl)acetamide","161.0 - 162.0","?C","434.5","K","","","","","","-","","-","","-","","-"
"FC(F)(F)COC1=CC=C(OCC(F)(F)F)C(=C1)S(Cl)(=O)=O","-","-","-","2,5-Di(2,2,2-trifluoroethoxy)benzene-1-sulfonyl chloride","47.0 - 50.0","?C","321.5","K","","","","","","-","","-","","-","","-"
"CC1=CN=CC(Cl)=N1","-","-","-","2-Chlor-6-methylpyrazin","48.0 - 52.0","?C","323.0","K","","","","","","-","","-","","-","","-"
"OC1=C(Br)C=C(Br)C=C1[N+]([O-])=O","-","-","-","2,4-Dibromo-6-nitrophenol","118.0 - 119.0","?C","391.5","K","","","","","","-","","-","","-","","-"
"BrC1=CC=C(C=C1)C(=O)C1=CC2=C(O1)C=CC(C=O)=C2","-","-","-","2-(4-Bromobenzoyl)-1-benzofuran-5-carbaldehyde","177.0 - 178.0","?C","450.5","K","","","","","","-","","-","","-","","-"
"CC1=NC(NN)=NC(N)=N1","-","-","-","4-Hydrazino-6-methyl-1,3,5-triazin-2-amine","250.0","?C","523.0","K","","","","","","-","","-","","-","","-"
"CC1=C(Cl)C(C)=C(C(N)=O)C(Cl)=N1","-","-","-","2,5-Dichloro-4,6-dimethylnicotinamide","172.0","?C","445.0","K","","","","","","-","","-","","-","","-"