"SMILES","CASRN","EXTERNALID","N","NAME","Melting Point","UNIT {Melting Point}","Melting Point {measured, converted}","UNIT {Melting Point}","Dataset","comment (property)","comment (chemical)","measurement method","Pressure","UNIT {Pressure}","Som set numeric condition","UNIT {Som set numeric condition}","Resp set numeric condition","UNIT {Resp set numeric condition}","Quality code","UNIT {Quality code}"
"ClC(Cl)C(=O)NCCCCCCCCNC(=O)C(Cl)Cl","-","-","-","N,N'-Octamethylenebis(dichloroacetamide)","118.0 - 120.0","?C","392.0","K","","","","","","-","","-","","-","","-"
"SC1=CC=NC=C1","-","-","-","4-Mercaptopyridine","182.0 - 189.0","?C","458.5","K","","","","","","-","","-","","-","","-"
"CC(=O)C12CC3CC(CC(C3)C1)C2","-","-","-","1-Adamantyl methyl ketone","53.0 - 55.0","?C","327.0","K","","","","","","-","","-","","-","","-"
"ClC1=C2C=CC=CC2=NC(=C1)C1=CC=CC=C1","-","-","-","4-Chloro-2-phenylquinoline","62.0 - 64.0","?C","336.0","K","","","","","","-","","-","","-","","-"
"COC1=CC(=CC=C1O)C(O)C(O)=O","-","-","-","4-HYDROXY-3-METHOXYMANDELIC ACID","131.0 - 134.0","?C","405.5","K","","","","","","-","","-","","-","","-"
"CCCC(C(N)=O)C1=CC=C(O)C(O)=C1","-","-","-","alpha-Propyldopacetamide","133.0 - 135.0","?C","407.0","K","","","","","","-","","-","","-","","-"
"O=C1OC(=O)C2=CC=CC=C2C2=CC=CC=C12","-","-","-","Diphenic anhydride","223.0 - 227.0","?C","498.0","K","","","","","","-","","-","","-","","-"
"OC(=O)C1=C(O)C=CC(O)=C1","-","-","-","2,5-Dihydroxybenzoic acid","204.0 - 207.0","?C","478.5","K","","","","","","-","","-","","-","","-"
"OC(=O)C1=NC=CC2=CC=CC=C12","-","-","-","1-Isoquinolinecarboxylic acid","160.0 - 165.0","?C","435.5","K","","","","","","-","","-","","-","","-"
"C1=NN=C2C=CC3=C(C=CC=C3)N12","-","-","-","s-triazolo[4,3-a]quinoline","175.0 - 177.0","?C","449.0","K","","","","","","-","","-","","-","","-"
"OC(=O)C1=CC=CN=C1Cl","-","-","-","2-Chloronicotinic acid","176.0 - 178.0","?C","450.0","K","","","","","","-","","-","","-","","-"
"OC(=O)C(Br)=C(Br)C(O)=O","-","-","-","Dibromomaleic acid","119.0 - 125.0","?C","395.0","K","","","","","","-","","-","","-","","-"
"NC1=NC(=O)NC=C1Br","-","-","-","5-Bromocytosine","240.0 - 243.0","?C","514.5","K","","","","","","-","","-","","-","","-"
"CCCCCCCCC=CCCCCCCCCOC(=O)OC1CCC2(C)C3CCC4(C)C(CCC4C3CC=C2C1)C(C)CCCC(C)C","-","-","-","Cholesteryl oleyl carbonate","20.0","?C","293.0","K","","","","","","-","","-","","-","","-"
"OC1(O)C(=O)C2=CC=CC=C2C1=O","-","-","-","NINHYDRIN","250.0","?C","523.0","K","","","","","","-","","-","","-","","-"
"CCN1C2=C(C=CC=C2)C2=C1C=CC(C=O)=C2","-","-","-","N-Ethyl-3-carbazolecarboxaldehyde","85.0 - 91.0","?C","361.0","K","","","","","","-","","-","","-","","-"
"OC(=O)C1=C(O)C=CC(F)=C1","-","-","-","5-Fluorosalicylic acid","179.0 - 182.0","?C","453.5","K","","","","","","-","","-","","-","","-"
"O=C1NC2=CC=CC=C2CCC2=C1C=CC=C2","-","-","-","5,6,11,12-Tetrahydrodibenz[b,f]azocin-6-one","246.0 - 248.0","?C","520.0","K","","","","","","-","","-","","-","","-"
"COC1=CC=C2C=CC=CC2=C1C#N","-","-","-","2-Methoxy-1-naphthonitrile","94.0 - 98.0","?C","369.0","K","","","","","","-","","-","","-","","-"
"[O-][N+](=O)C1=C(NC2=CC=CC=C2)C=C(Cl)C=C1","-","-","-","5-Chloro-2-nitrodiphenylamine","110.0 - 114.0","?C","385.0","K","","","","","","-","","-","","-","","-"
"OC(=O)C1=CC(=O)NC(O)=C1","-","-","-","CITRAZINIC ACID","300.0","?C","573.0","K","","","","","","-","","-","","-","","-"
"OCC(O)C(OC1OC(CO)C(O)C(O)C1O)C(O)C(O)C(O)=O","-","-","-","Lactobionic Acid","113.0 - 118.0","?C","388.5","K","","","","","","-","","-","","-","","-"
"ClC(=O)N1C2=CC=CC=C2SC2=C1C=CC=C2","-","-","-","Phenothiazine-10-carbonyl chloride","168.0 - 172.0","?C","443.0","K","","","","","","-","","-","","-","","-"
"OCC1=CC=CC(CO)=N1","-","-","-","2,6-Pyridinedimethanol","112.0 - 115.0","?C","386.5","K","","","","","","-","","-","","-","","-"
"O=C1CCSCC1","-","-","-","Tetrahydrothiopyran-4-one","62.0 - 65.0","?C","336.5","K","","","","","","-","","-","","-","","-"
"ClC(Cl)(Cl)COP(Cl)(=O)OCC(Cl)(Cl)Cl","-","-","-","Bis(2,2,2-trichloroethyl) phosphorochloridate","45.0 - 47.0","?C","319.0","K","","","","","","-","","-","","-","","-"
"COC1=CC(OC)=C(C#N)C(OC)=C1","-","-","-","2,4,6-Trimethoxybenzonitrile","142.0 - 145.0","?C","416.5","K","","","","","","-","","-","","-","","-"
"CC1(C)C=C(C(N)=O)C(C)(C)N1O","-","-","-","3-Carbamoyl-2,2,5,5-tetramethyl-3-pyrrolin-1-yloxy","198.0 - 200.0","?C","472.0","K","","","","","","-","","-","","-","","-"
"S=C(N1C=CN=C1)N1C=CN=C1","-","-","-","1,1'-Thiocarbonyldiimidazole","96.0 - 103.0","?C","372.5","K","","","","","","-","","-","","-","","-"
"CC(=C)C(=O)OC1=CC=C(C=C1)C(C)(C)C1=CC=C(OC(=O)C(C)=C)C=C1","-","-","-","Bisphenol A dimethacrylate","70.0 - 76.0","?C","346.0","K","","","","","","-","","-","","-","","-"
"CC(C)([N+]([O-])=O)C(C)(C)[N+]([O-])=O","-","-","-","2,3-Dimethyl-2,3-dinitrobutane","210.0 - 214.0","?C","485.0","K","","","","","","-","","-","","-","","-"
"OC(=O)C1=CC=C(Cl)N=C1","-","-","-","6-Chloronicotinic acid","185.0","?C","458.0","K","","","","","","-","","-","","-","","-"
"CC1=NN(C(=O)C1C(=O)C1=CC=CC=C1)C1=CC=CC=C1","-","-","-","4-Benzoyl-3-methyl-1-phenyl-2-pyrazolin-5-one","90.0 - 92.0","?C","364.0","K","","","","","","-","","-","","-","","-"
"OC(C(O)C(=O)NCC=C)C(=O)NCC=C","-","-","-","N,N'-Diallyl-L-tartardiamide","182.0 - 186.0","?C","457.0","K","","","","","","-","","-","","-","","-"
"[O-][N+](=O)C1=CC=CC2=C1C(=O)OC2=O","-","-","-","3-Nitrophthalic anhydride","160.0 - 165.0","?C","435.5","K","","","","","","-","","-","","-","","-"
"COC1=C(Cl)C=CC=C1Cl","-","-","-","2,6-Dichloroanisole","10.0 - 11.0","?C","283.5","K","","","","","","-","","-","","-","","-"
"N#CC(C#N)=C1C=CC(C=C1)=C(C#N)C#N","-","-","-","7,7,8,8-Tetracyanoquinodimethane","287.0 - 289.0","?C","561.0","K","","","","","","-","","-","","-","","-"
"CC1(C)N(Br)C(=O)N(Br)C1=O","-","-","-","1,3-Dibromo-5,5-dimethylhydantoin","187.0 - 191.0","?C","462.0","K","","","","","","-","","-","","-","","-"
"COC(=O)C=P(C1=CC=CC=C1)(C1=CC=CC=C1)C1=CC=CC=C1","-","-","-","Methyl (triphenylphosphoranylidene)acetate","164.0 - 169.0","?C","439.5","K","","","","","","-","","-","","-","","-"
"CC(CN(CC(O)=O)CC(O)=O)N(CC(O)=O)CC(O)=O","-","-","-","1,2-Diaminopropane-N,N,N',N'-tetraacetic acid","241.0 - 243.0","?C","515.0","K","","","","","","-","","-","","-","","-"
"OC(=O)CNCCNCC(O)=O","-","-","-","Ethylenediamine-N,N'-diacetic acid","224.0 - 225.0","?C","497.5","K","","","","","","-","","-","","-","","-"
"COC1=CC=C(CC(N)C(O)=O)C=C1","-","-","-","O-Methyl-L-tyrosine","259.0 - 261.0","?C","533.0","K","","","","","","-","","-","","-","","-"
"S=C1NC=CC(=S)N1","-","-","-","Dithiouracil","279.0 - 281.0","?C","553.0","K","","","","","","-","","-","","-","","-"
"CC(=O)OC1OC(COC(=O)C2=CC=CC=C2)C(OC(=O)C2=CC=CC=C2)C1OC(=O)C1=CC=CC=C1","-","-","-","beta-D-Ribofuranose 1-acetate 2,3,5-tribenzoate","128.0 - 130.0","?C","402.0","K","","","","","","-","","-","","-","","-"
"CC(=O)OCC1OC(OC(C)=O)C(OC(C)=O)C1OC(C)=O","-","-","-","beta-D-Ribofuranose 1,2,3,5-tetraacetate","79.0 - 81.0","?C","353.0","K","","","","","","-","","-","","-","","-"
"ClCOC1=CC=C(Cl)C=C1","-","-","-","alpha,4-Dichloroanisole","29.0 - 30.0","?C","302.5","K","","","","","","-","","-","","-","","-"
"CCOC(C)=C(C#N)C#N","-","-","-","(1-Ethoxyethylidene)malononitrile","89.0 - 93.0","?C","364.0","K","","","","","","-","","-","","-","","-"
"NC(CC(O)=O)C1=CC=CC=C1","-","-","-","dl-3-Amino-3-phenylpropionic acid","222.0","?C","495.0","K","","","","","","-","","-","","-","","-"
"COC1=CC=C(C=C1)C(=O)C(=O)C1=CC=C(OC)C=C1","-","-","-","4,4'-Dimethoxybenzil","131.0 - 134.0","?C","405.5","K","","","","","","-","","-","","-","","-"
"CCCCCCCCCCC(=O)C1=CC=CC=C1","-","-","-","Undecanophenone","28.0 - 30.0","?C","302.0","K","","","","","","-","","-","","-","","-"
"ClC1=CC=C(C=C1)C1(CC1)C#N","-","-","-","1-(4-Chlorophenyl)-1-cyclopropanecarbonitrile","52.0 - 56.0","?C","327.0","K","","","","","","-","","-","","-","","-"
"ClC1=CC=C(C=C1)C1(CCCCC1)C#N","-","-","-","1-(4-Chlorophenyl)-1-cyclohexanecarbonitrile","88.0 - 92.0","?C","363.0","K","","","","","","-","","-","","-","","-"
"CC1=CC=C(C=C1)C1(CC1)C(O)=O","-","-","-","1-(4-Methylphenyl)-1-cyclopropanecarboxylic acid","109.0 - 114.0","?C","384.5","K","","","","","","-","","-","","-","","-"
"COC1=CC=C(C=C1)C1(CC1)C(O)=O","-","-","-","1-(4-Methoxyphenyl)-1-cyclopropanecarboxylic acid","127.0 - 132.0","?C","402.5","K","","","","","","-","","-","","-","","-"
"OC(=O)C1(CCC1)C1=CC=C(Cl)C=C1","-","-","-","1-(4-Chlorophenyl)-1-cyclobutanecarboxylic acid","80.0 - 90.0","?C","358.0","K","","","","","","-","","-","","-","","-"
"CC1=CC=C(C=C1)C1(CCCC1)C(O)=O","-","-","-","1-(p-Tolyl)-1-cyclopentanecarboxylic acid","181.0 - 184.0","?C","455.5","K","","","","","","-","","-","","-","","-"
"COC1=CC=C(C=C1)C1(CCCC1)C(O)=O","-","-","-","1-(4-Methoxyphenyl)-1-cyclopentanecarboxylic acid","151.0 - 156.0","?C","426.5","K","","","","","","-","","-","","-","","-"
"CC1=CC=C(C=C1)C1(CCCCC1)C(O)=O","-","-","-","1-(4-Methylphenyl)-1-cyclohexanecarboxylic acid","166.0 - 170.0","?C","441.0","K","","","","","","-","","-","","-","","-"
"COC1=CC=C(C=C1)C1(CCCCC1)C(O)=O","-","-","-","1-(4-Methoxyphenyl)-1-cyclohexanecarboxylic acid","172.0 - 177.0","?C","447.5","K","","","","","","-","","-","","-","","-"
"OC(=O)C(C(O)=O)C1=CC=CC=C1","-","-","-","Phenylmalonic acid","153.0 - 155.0","?C","427.0","K","","","","","","-","","-","","-","","-"
"O=C1NCN(C2=CC=CC=C2)C11CCNCC1","-","-","-","1-Phenyl-1,3,8-triazaspiro[4.5]decan-4-one","183.0 - 185.0","?C","457.0","K","","","","","","-","","-","","-","","-"
"ClC(=O)OCC1C2=C(C=CC=C2)C2=C1C=CC=C2","-","-","-","9-Fluorenylmethyl chloroformate","63.0","?C","336.0","K","","","","","","-","","-","","-","","-"
"O=C1C=CC2=C(C=CC=C2)C1=O","-","-","-","1,2-NAPHTHOQUINONE","136.0 - 141.0","?C","411.5","K","","","","","","-","","-","","-","","-"
"OC1=C2C=CC=CC2=CC=C1[N+]([O-])=O","-","-","-","2-Nitro-1-naphthol","123.0 - 125.0","?C","397.0","K","","","","","","-","","-","","-","","-"
"ClC1=NC=NC2=C1N=CN2","-","-","-","6-Chloropurine","300.0","?C","573.0","K","","","","","","-","","-","","-","","-"
"O=C1NC2=C(N1)C(=O)NC(=O)N2","-","-","-","Uric acid","300.0","?C","573.0","K","","","","","","-","","-","","-","","-"
"CC1=C(C)C(N)=C(C)C(C)=C1N","-","-","-","2,3,5,6-Tetramethyl-p-phenylenediamine","150.0 - 153.0","?C","424.5","K","","","","","","-","","-","","-","","-"
"[O-][N+](=O)C1=CC=C2OCOC2=C1","-","-","-","1,2-(Methylenedioxy)-4-nitrobenzene","145.0 - 149.0","?C","420.0","K","","","","","","-","","-","","-","","-"
"NC(C(O)=O)(C1=CC=CC=C1)C1=CC=CC=C1","-","-","-","alpha,alpha-Diphenylglycine","244.0 - 247.0","?C","518.5","K","","","","","","-","","-","","-","","-"
"CCN1C(=O)CC(=O)N(CC)C1=S","-","-","-","1,3-Diethyl-2-thiobarbituric acid","106.0 - 109.0","?C","380.5","K","","","","","","-","","-","","-","","-"
"ClC1=NC(=NC2=CC=CC=C12)C1=CC=CC=C1","-","-","-","4-Chloro-2-phenylquinazoline","123.0 - 128.0","?C","398.5","K","","","","","","-","","-","","-","","-"
"NC(=N)NCCCC(NC(=O)OCC1=CC=CC=C1)C(O)=O","-","-","-","Nalpha-Carbobenzyloxy-L-arginine","173.0 - 175.0","?C","447.0","K","","","","","","-","","-","","-","","-"
"NC(=O)CCC(NC(=O)OCC1=CC=CC=C1)C(O)=O","-","-","-","N-Carbobenzyloxy-L-glutamine","135.0 - 137.0","?C","409.0","K","","","","","","-","","-","","-","","-"
"NC(CC1=CNC2=C1C=CC=C2)C(O)=O","-","-","-","DL-TRYPTOPHAN","289.0 - 290.0","?C","562.5","K","","","","","","-","","-","","-","","-"
"CC1C(=O)NC(=O)C1(C)C","-","-","-","alpha,alpha-Dimethyl-beta-methylsuccinimide","117.0 - 122.0","?C","392.5","K","","","","","","-","","-","","-","","-"
"OCCN(CCO)CCS(O)(=O)=O","-","-","-","2-[Bis(2-Hydroxyethyl)amino]ethanesulfonic acid","152.0 - 154.0","?C","426.0","K","","","","","","-","","-","","-","","-"
"OCCN1CCN(CCCS(O)(=O)=O)CC1","-","-","-","EPPS","231.0","?C","504.0","K","","","","","","-","","-","","-","","-"
"OS(=O)(=O)CCN1CCN(CCS(O)(=O)=O)CC1","-","-","-","PIPES","300.0","?C","573.0","K","","","","","","-","","-","","-","","-"
"OS(=O)(=O)CCCNC1CCCCC1","-","-","-","CAPS","324.0","?C","597.0","K","","","","","","-","","-","","-","","-"
"OCCN(CCO)CC(O)=O","-","-","-","Bicine","190.0 - 192.0","?C","464.0","K","","","","","","-","","-","","-","","-"
"NC(C#N)=C(N)C#N","-","-","-","DIAMINOMALEONITRILE","178.0 - 179.0","?C","451.5","K","","","","","","-","","-","","-","","-"
"CCCCCCCCC1=CC=C(C=C1)C(Cl)=CC1=CC=C(OCC)C=C1","-","-","-","trans-4-Octyl-alpha-chloro-4'-ethoxystilbene","32.0","?C","305.0","K","","","","","","-","","-","","-","","-"
"NC(CSC(C1=CC=CC=C1)(C1=CC=CC=C1)C1=CC=CC=C1)C(O)=O","-","-","-","S-Trityl-L-cysteine","182.0 - 183.0","?C","455.5","K","","","","","","-","","-","","-","","-"
"OC(=O)CC(=O)CC(O)=O","-","-","-","1,3-Acetonedicarboxylic acid","133.0","?C","406.0","K","","","","","","-","","-","","-","","-"
"CC1=C(C)C(O)=NC(O)=N1","-","-","-","2,4-Dihydroxy-5,6-dimethylpyrimidine","297.0 - 300.0","?C","571.5","K","","","","","","-","","-","","-","","-"
"OC1=CC2=C(OC(=O)C2)C=C1","-","-","-","2,5-Dihydroxyphenylacetic acid gamma-lactone","190.0 - 195.0","?C","465.5","K","","","","","","-","","-","","-","","-"
"CC(OC1C(N)C(O)OC(CO)C1O)C(O)=O","-","-","-","Muramic acid hydrate","148.0","?C","421.0","K","","","","","","-","","-","","-","","-"
"OC(=O)CC(=O)C(O)=O","-","-","-","oxalacetic acid","161.0","?C","434.0","K","","","","","","-","","-","","-","","-"
"OC(=O)CC1(CC(O)=O)CCCCC1","-","-","-","1,1-Cyclohexanediacetic acid","181.0 - 185.0","?C","456.0","K","","","","","","-","","-","","-","","-"
"OC(=O)CSC(=S)SCC(O)=O","-","-","-","Bis(carboxymethyl) trithiocarbonate","170.0 - 175.0","?C","445.5","K","","","","","","-","","-","","-","","-"
"COC1=CC(O)=C(C=C1)C(O)=O","-","-","-","4-Methoxysalicylic acid","157.0 - 159.0","?C","431.0","K","","","","","","-","","-","","-","","-"
"COC(=O)C1=C(O)C=C(OC)C=C1","-","-","-","Methyl 4-methoxysalicylate","49.0 - 53.0","?C","324.0","K","","","","","","-","","-","","-","","-"
"ClP(=O)(NC1=CC=CC=C1)OC1=CC=CC=C1","-","-","-","Phenyl N-phenylphosphoramidochloridate","132.0 - 134.0","?C","406.0","K","","","","","","-","","-","","-","","-"
"O=C1CSC2=C(N1)C=CC=C2","-","-","-","2H-1,4-Benzothiazin-3(4H)-one","178.0 - 181.0","?C","452.5","K","","","","","","-","","-","","-","","-"
"CCC1CC(O)CC(C)(C)N1O","-","-","-","4-Hydroxy-2,2,6,6-tetramethyl-piperidinooxy","69.0 - 73.0","?C","344.0","K","","","","","","-","","-","","-","","-"
"ClC1=C(Cl)C(=O)N(N=C1)C1=CC=CC=C1","-","-","-","4,5-dichloro-2-phenyl-2,3-dihydropyridazin-3-one","163.0 - 164.0","?C","436.5","K","","","","","","-","","-","","-","","-"
"OC(=O)C1=CC2=CC=CC=C2N=C1","-","-","-","3-Quinolinecarboxylic acid","277.0 - 283.0","?C","553.0","K","","","","","","-","","-","","-","","-"
"OC(=O)CCCCCCCCCCCCCCC(O)=O","-","-","-","HEXADECANEDIOIC ACID","124.0 - 126.0","?C","398.0","K","","","","","","-","","-","","-","","-"
"CN(C)NC(=O)CCC(O)=O","-","-","-","Succinic acid 2,2-dimethylhydrazide","158.0 - 162.0","?C","433.0","K","","","","","","-","","-","","-","","-"
"NN1C(=O)C2=C(C=CC=C2)C1=O","-","-","-","N-aminophthalimide","200.0 - 202.0","?C","474.0","K","","","","","","-","","-","","-","","-"
"OC(CCl)C1=C(Cl)C=C(Cl)C=C1","-","-","-","alpha-(Chloromethyl)-2,4-dichlorobenzyl alcohol","48.0 - 52.0","?C","323.0","K","","","","","","-","","-","","-","","-"
"ClC1=CC(Cl)=C(CC#N)C=C1","-","-","-","2,4-Dichlorophenylacetonitrile","60.0 - 63.0","?C","334.5","K","","","","","","-","","-","","-","","-"
"CC1CCC(=O)C1=O","-","-","-","3-Methyl-1,2-cyclopentanedione","105.0 - 110.0","?C","380.5","K","","","","","","-","","-","","-","","-"
"CC(=O)CCC1=CC=C(O)C=C1","-","-","-","4-(4-Hydroxyphenyl)-2-butanone","82.0 - 84.0","?C","356.0","K","","","","","","-","","-","","-","","-"
"OC(=O)C=CC1=CC=C(C=O)C=C1","-","-","-","4-Formylcinnamic acid","250.0 - 255.0","?C","525.5","K","","","","","","-","","-","","-","","-"
"CCC1CC(=O)CC(C)(C)N1O","-","-","-","4-Oxo-2,2,6,6-tetramethylpiperidinooxy","33.0 - 38.0","?C","308.5","K","","","","","","-","","-","","-","","-"
"OC[C@H]1O[C@@H](O[C@H]2[C@H](O)[C@@H](O)[C@@H](O)O[C@@H]2CO)[C@H](O)[C@@H](O)[C@@H]1O","-","-","-","Amylodextrin","256.0 - 258.0","?C","530.0","K","","","","","","-","","-","","-","","-"
"CC(C)(C)N=O","-","-","-","2-Methyl-2-nitrosopropane dimer","81.0 - 83.0","?C","355.0","K","","","","","","-","","-","","-","","-"
"CC(C)(C)[N+]([O-])=CC1=CC=CC=C1","-","-","-","n-tert-butyl-alpha-phenylnitrone","71.0 - 75.0","?C","346.0","K","","","","","","-","","-","","-","","-"
"CCCCCCCC1=CC=C(C=C1)C(=O)OC1=CC=C(C=C1)C#N","-","-","-","4-Cyanophenyl 4-heptylbenzoate","43.0 - 46.0","?C","317.5","K","","","","","","-","","-","","-","","-"
"OC(C1CCCCC1)(C1CCCCC1)C1CCCCC1","-","-","-","Tricyclohexylmethanol","94.0 - 96.0","?C","368.0","K","","","","","","-","","-","","-","","-"
"CC1(NC(=O)NC1=O)C1=CC=CC=C1","-","-","-","5-Methyl-5-phenylhydantoin","199.0 - 201.0","?C","473.0","K","","","","","","-","","-","","-","","-"
"OC(=O)CSC1=CC=NC=C1","-","-","-","(4-pyridylthio)acetic acid","251.0 - 255.0","?C","526.0","K","","","","","","-","","-","","-","","-"
"CC1=C(O)C(C(O)=O)=C2C=CC=CC2=N1","-","-","-","3-Hydroxy-2-methyl-4-quinolinecarboxylic acid","200.0","?C","473.0","K","","","","","","-","","-","","-","","-"
"OC1=CC=C(C=C1)N1C=CN=C1","-","-","-","4-(Imidazol-1-yl)phenol","204.0 - 206.0","?C","478.0","K","","","","","","-","","-","","-","","-"
"OC(=O)CCC1=CC=C(CCC(O)=O)C=C1","-","-","-","p-Phenylenedipropionic acid","229.0 - 233.0","?C","504.0","K","","","","","","-","","-","","-","","-"
"OC1CSC(O)CS1","-","-","-","p-Dithiane-2,5-diol","108.0 - 145.0","?C","399.5","K","","","","","","-","","-","","-","","-"
"CC1=CC(CS)=C(CS)C=C1C","-","-","-","Durene-alpha1,alpha2-dithiol","64.0 - 69.0","?C","339.5","K","","","","","","-","","-","","-","","-"
"OCC12CC3CC(CC(C3)C1)C2","-","-","-","1-adamantylmethanol","140.0","?C","413.0","K","","","","","","-","","-","","-","","-"
"OC1=CC=NC2=CC(=CC=C12)C(F)(F)F","-","-","-","7-(Trifluoromethyl)-4-quinolinol","266.0 - 270.0","?C","541.0","K","","","","","","-","","-","","-","","-"
"CCCCOC1=CC=C(CO)C=C1","-","-","-","4-Butoxybenzyl alcohol","29.0 - 32.0","?C","303.5","K","","","","","","-","","-","","-","","-"
"ClC1=C(Cl)C2(Cl)C3C(C4C(C5=C3C=CC=C5)C3(Cl)C(Cl)=C(Cl)C4(Cl)C3(Cl)Cl)C1(Cl)C2(Cl)Cl","-","-","-","Naphthalene-bis(hexachlorocyclopentadiene)adduct","217.0 - 220.0","?C","491.5","K","","","","","","-","","-","","-","","-"
"CC1=CC2=C(C=C1)C1C(C3C2C2(Cl)C(Cl)=C(Cl)C3(Cl)C2(Cl)Cl)C2(Cl)C(Cl)=C(Cl)C1(Cl)C2(Cl)Cl","-","-","-","2-Methylnaphthalene-bis(hexachlorocyclopentadiene) adduct","160.0 - 165.0","?C","435.5","K","","","","","","-","","-","","-","","-"
"CC(CCl)(CCl)C(O)=O","-","-","-","3,3'-Dichloropivalic acid","64.0 - 66.0","?C","338.0","K","","","","","","-","","-","","-","","-"
"OC(=O)C1=CC=C(C=C1)C(O)=O","-","-","-","TEREPHTHALIC ACID","300.0","?C","573.0","K","","","","","","-","","-","","-","","-"
"O=C1C2CCCC1CCC2","-","-","-","Bicyclo[3.3.1]nonan-9-one","153.0 - 157.0","?C","428.0","K","","","","","","-","","-","","-","","-"
"FC(F)(F)C1=CC2=NC=CC(Cl)=C2C=C1","-","-","-","4-Chloro-7-(trifluoromethyl)quinoline","69.0 - 73.0","?C","344.0","K","","","","","","-","","-","","-","","-"
"OC1C(Cl)(Cl)CCCC1(Cl)Cl","-","-","","2,2,6,6-Tetrachlorocyclohexanol","55.0","?C","328.0","K","","","","","","-","","-","","-","","-"
"OC1(O)C(=O)CCCC1(Cl)Cl","-","-","-","3,3-Dichloro-2,2-dihydroxycyclohexanone","120.0 - 124.0","?C","395.0","K","","","","","","-","","-","","-","","-"
"ClCC1=CC(OCC2=CC=CC=C2)=C(OCC2=CC=CC=C2)C=C1","-","-","-","3,4-Dibenzyloxybenzyl chloride","41.0 - 44.0","?C","315.5","K","","","","","","-","","-","","-","","-"
"OCC1=C(C=CC(Cl)=C1)[N+]([O-])=O","-","-","-","5-Chloro-2-nitrobenzyl alcohol","77.0 - 82.0","?C","352.5","K","","","","","","-","","-","","-","","-"
"CC1=C(C=CC(CO)=C1)[N+]([O-])=O","-","-","-","3-Methyl-4-nitrobenzyl alcohol","56.0 - 60.0","?C","331.0","K","","","","","","-","","-","","-","","-"