"SMILES","CASRN","EXTERNALID","N","NAME","Melting Point","UNIT {Melting Point}","Melting Point {measured, converted}","UNIT {Melting Point}","Dataset","comment (property)","comment (chemical)","measurement method","Pressure","UNIT {Pressure}","Som set numeric condition","UNIT {Som set numeric condition}","Resp set numeric condition","UNIT {Resp set numeric condition}","Quality code","UNIT {Quality code}"
"CCNCCS(=O)(=O)C1=CC=C(C)C=C1","-","-","-","N1-Ethyl-2-[(4-methylphenyl)sulfonyl]ethan-1-amine","42.0 - 45.0","?C","316.5","K","","","","","","-","","-","","-","","-"
"CC1=CC=C(C=C1)C1=CN=CO1","-","-","-","5-(4-Methylphenyl)-1,3-oxazole","78.0","?C","351.0","K","","","","","","-","","-","","-","","-"
"ClC(=O)C1=NOC(=C1)C1=CC=CS1","-","-","-","5-(2-Thienyl)-3-isoxazolecarbonyl chloride","77.0 - 78.0","?C","350.5","K","","","","","","-","","-","","-","","-"
"O=CC1=CC(=CC=C1)N1CCOCC1","-","-","-","3-Morpholinobenzaldehyde","68.0 - 70.0","?C","342.0","K","","","","","","-","","-","","-","","-"
"O=CC1=CC=C(CN2C=NC=N2)C=C1","-","-","-","4-(1H-1,2,4-Triazol-1-ylmethyl)benzaldehyde","73.0 - 75.0","?C","347.0","K","","","","","","-","","-","","-","","-"
"COC1=NN2C(C=C1)=NN=C2C1=CC=C(C=C1)C(F)(F)F","-","-","-","6-Methoxy-3-[4-(trifluoromethyl)phenyl][1,2,4]triazolo[4,3-b]pyridazine","142.0","?C","415.0","K","","","","","","-","","-","","-","","-"
"CC(OC1C(NC(C)=O)C(OCC2=CC=CC=C2)OC2COC(OC12)C1=CC=CC=C1)C(O)=O","-","-","-","2-{[7-(Acetylamino)-6-(benzyloxy)-2-phenylperhydropyrano[3,2-d][1,3]dioxin-8-yl]oxy}propanoic acid","220.0 - 222.0","?C","494.0","K","","","","","","-","","-","","-","","-"
"NC1=CC(=CC=C1OC1=CC=C(C=C1)C#N)C(F)(F)F","-","-","-","4-[2-Amino-4-(trifluoromethyl)phenoxy]benzonitrile","106.0 - 108.0","?C","380.0","K","","","","","","-","","-","","-","","-"
"COC(=O)C1=CC2=C(N1)SC=C2","-","-","-","Methyl 6H-thieno[2,3-b]pyrrole-5-carboxylate","127.0 - 129.0","?C","401.0","K","","","","","","-","","-","","-","","-"
"NC1=CC=C(C=C1)C1=CC=CN=C1","-","-","-","4-Pyridin-3-ylaniline","115.0 - 118.0","?C","389.5","K","","","","","","-","","-","","-","","-"
"NNC(=O)C(=O)NC1CCCCC1","-","-","-","N1-Cyclohexyl-2-hydrazino-2-oxoacetamide","238.0","?C","511.0","K","","","","","","-","","-","","-","","-"
"CN(C)C1=CC=CC(N(C)C)=C1C#N","-","-","-","2,6-Di(dimethylamino)benzonitrile","71.0 - 73.0","?C","345.0","K","","","","","","-","","-","","-","","-"
"OC1=CC(=NC2=C(Br)C=CC=C12)C(F)(F)F","-","-","-","8-Bromo-2-(trifluoromethyl)quinolin-4-ol","136.0 - 137.0","?C","409.5","K","","","","","","-","","-","","-","","-"
"CN1C(Br)=NC(C(O)=O)=C1C(O)=O","-","-","-","2-Bromo-1-methyl-1H-imidazole-4,5-dicarboxylic acid","160.0","?C","433.0","K","","","","","","-","","-","","-","","-"
"COC1=CC=CC=C1N1CCN(CC1)C(=O)C1=CC=C(N)C=C1","-","-","-","(4-Aminophenyl)[4-(2-methoxyphenyl)piperazino]methanone","212.0 - 213.5","?C","485.8","K","","","","","","-","","-","","-","","-"
"OC(=O)C=CC1=CC=C(OC(F)(F)F)C=C1","-","-","-","3-[4-(Trifluoromethoxy)phenyl]acrylic acid","178.0 - 179.0","?C","451.5","K","","","","","","-","","-","","-","","-"
"CC(=O)C1=CSC(=N1)C1=NOC(C)=C1","-","-","-","1-[2-(5-Methyl-3-isoxazolyl)-1,3-thiazol-4-yl]-1-ethanone","130.0 - 132.5","?C","404.2","K","","","","","","-","","-","","-","","-"
"CC(=O)NC1=CC2=C(CCC2)C=C1","-","-","-","N1-(2,3-Dihydro-1H-inden-5-yl)acetamide","106.0 - 108.0","?C","380.0","K","","","","","","-","","-","","-","","-"
"ClC1=NC(=NC(Cl)=N1)N1CCOCC1","-","-","-","2,4-Dichloro-6-morpholino-1,3,5-triazine","137.0 - 143.0","?C","413.0","K","","","","","","-","","-","","-","","-"
"OCC1=CC(=CC=C1)C1=CSC=C1","-","-","-","(3-Thien-3-ylphenyl)methanol","88.0 - 90.0","?C","362.0","K","","","","","","-","","-","","-","","-"
"COC1=CC=CC(OC)=C1SC","-","-","-","1,3-Dimethoxy-2-(methylthio)benzene","79.0 - 80.0","?C","352.5","K","","","","","","-","","-","","-","","-"
"COC1=CC=C(C=C1)C1=CSN=N1","-","-","-","4-(4-Methoxyphenyl)-1,2,3-thiadiazole","89.0 - 93.0","?C","364.0","K","","","","","","-","","-","","-","","-"
"CC1=C(C(=NO1)C1=CC=C(Cl)C=C1)C1=NC(S)=NC=C1","-","-","-","4-[3-(4-Chlorophenyl)-5-methyl-4-isoxazolyl]-2-pyrimidinethiol","180.0 - 184.0","?C","455.0","K","","","","","","-","","-","","-","","-"
"CN1N=C(C=O)C=C1C","-","-","-","1,5-Dimethyl-1H-pyrazole-3-carbaldehyde","56.0 - 57.0","?C","329.5","K","","","","","","-","","-","","-","","-"
"ClCC1=CSC2=CC=C(Br)C=C12","-","-","-","5-Bromo-3-(chloromethyl)-1-benzothiophene","106.0 - 108.0","?C","380.0","K","","","","","","-","","-","","-","","-"
"OC(=O)C1=CC=C(C=C1)C1=CN=CN=C1","-","-","-","4-Pyrimidin-5-ylbenzoic acid","316.0 - 317.0","?C","589.5","K","","","","","","-","","-","","-","","-"
"SC1=NC=CN1C1=CC(Cl)=CC=C1Cl","-","-","-","1-(2,5-Dichlorophenyl)-1H-imidazole-2-thiol","273.0","?C","546.0","K","","","","","","-","","-","","-","","-"
"CCOC(=O)C1=C(C)C(Br)=C(C)N1","-","-","-","Ethyl 4-bromo-3,5-dimethyl-1H-pyrrole-2-carboxylate","142.0","?C","415.0","K","","","","","","-","","-","","-","","-"
"OC(=O)CCCC1=CC2=C(OCCO2)C=C1","-","-","-","4-(2,3-Dihydro-1,4-benzodioxin-6-yl)butanoic acid","76.0 - 78.0","?C","350.0","K","","","","","","-","","-","","-","","-"
"CCOC(=O)C1=C(N)C2=CC=CN=C2S1","-","-","-","Ethyl 3-aminothieno[2,3-b]pyridine-2-carboxylate","183.0 - 185.0","?C","457.0","K","","","","","","-","","-","","-","","-"
"O(C1=CC=CC=C1P(C1=CC=CC=C1)C1=CC=CC=C1)C1=C(C=CC=C1)P(C1=CC=CC=C1)C1=CC=CC=C1","-","-","-","Bis(2-diphenylphosphinophenyl)ether","184.0 - 187.0","?C","458.5","K","","","","","","-","","-","","-","","-"
"NC(=O)C1=C(SC2=CC=C(Cl)C=C2)N=CC=C1","-","-","-","2-[(4-Chlorophenyl)thio]nicotinamide","209.0 - 211.0","?C","483.0","K","","","","","","-","","-","","-","","-"
"CC1=C2CCCC2=C(O)C(Br)=C1","-","-","-","5-Bromo-7-methylindan-4-ol","60.0 - 62.0","?C","334.0","K","","","","","","-","","-","","-","","-"
"CC(=O)C1=CC=C(NC(=O)CCl)C=C1","-","-","-","N1-(4-Acetylphenyl)-2-chloroacetamide","150.0 - 151.0","?C","423.5","K","","","","","","-","","-","","-","","-"
"CC1=NC2=C(C=CC=C2)C2=C1C(=O)NC2=O","-","-","-","4-Methyl-2,3-dihydro-1H-pyrrolo[3,4-c]quinoline-1,3-dione","255.0 - 256.0","?C","528.5","K","","","","","","-","","-","","-","","-"
"COC1=C(OC)C=C(C=C1)C1=NNC(=C1)C(F)(F)F","-","-","-","3-(3,4-Dimethoxyphenyl)-5-(trifluoromethyl)-1H-pyrazole","150.0 - 156.0","?C","426.0","K","","","","","","-","","-","","-","","-"
"COC(=O)C1=CC(NS(=O)(=O)C2=CC=C(C)C=C2)=C(NS(=O)(=O)C2=CC=C(C)C=C2)C=C1","-","-","-","Methyl 3,4-di{[(4-methylphenyl)sulfonyl]amino}benzoate","180.0 - 182.0","?C","454.0","K","","","","","","-","","-","","-","","-"
"CC(=O)N(C1=NC(CCl)=CS1)C1=CC=C(C)C=C1","-","-","-","N1-[4-(Chloromethyl)-1,3-thiazol-2-yl]-N1-(4-methylphenyl)acetamide","124.0 - 125.0","?C","397.5","K","","","","","","-","","-","","-","","-"
"CCOC1=CC=C(C=C1)N=C=S","-","-","-","4-Ethoxyphenyl isothiocyanate","60.0 - 61.0","?C","333.5","K","","","","","","-","","-","","-","","-"
"CNCC1=CC=C(C=C1)N1CCN(CC1)C(=O)OC(C)(C)C","-","-","-","tert-Butyl 4-{4-[(methylamino)methyl]phenyl}piperazine-1-carboxylate","60.0 - 62.0","?C","334.0","K","","","","","","-","","-","","-","","-"
"OC(=O)C1=CC(=CC=C1)C1=NC=CC=C1","-","-","-","3-Pyrid-2-ylbenzoic acid","207.0 - 209.0","?C","481.0","K","","","","","","-","","-","","-","","-"
"NNC1=NC=NC2=C1C(=CS2)C1=CC=CC=C1","-","-","-","4-Hydrazino-5-phenylthieno[2,3-d]pyrimidine","150.0 - 152.0","?C","424.0","K","","","","","","-","","-","","-","","-"
"CC(C)C1=C(O)C=C(C)C(SC#N)=C1","-","-","-","4-Hydroxy-5-isopropyl-2-methylphenyl thiocyanate","103.0 - 105.0","?C","377.0","K","","","","","","-","","-","","-","","-"
"CN1C(S)=NC=C1CO","-","-","-","(2-Mercapto-1-methyl-1H-imidazol-5-yl)methanol","220.0 - 222.0","?C","494.0","K","","","","","","-","","-","","-","","-"
"CC1=NC(=CS1)C1=CC=C(CO)C=C1","-","-","-","[4-(2-Methyl-1,3-thiazol-4-yl)phenyl]methanol","71.0 - 74.0","?C","345.5","K","","","","","","-","","-","","-","","-"
"NC(=S)NN=CC1=CC=CC=C1","-","-","-","2-Benzylidenehydrazine-1-carbothioamide","154.0 - 156.0","?C","428.0","K","","","","","","-","","-","","-","","-"
"CCOC(=O)C1=C(CBr)NC(=O)NC1C","-","-","-","Ethyl 6-(bromomethyl)-4-methyl-2-oxo-1,2,3,4-tetrahydropyrimidine-5-carboxylate","148.0","?C","421.0","K","","","","","","-","","-","","-","","-"
"CC(=O)NC1=C(C)C=CC(N)=C1","-","-","-","N1-(5-Amino-2-methylphenyl)acetamide","141.0 - 142.0","?C","414.5","K","","","","","","-","","-","","-","","-"
"CC(C)(C)OC(=O)N1CCN(CC1)C1=NC=C(I)C=C1","-","-","-","tert-Butyl 4-(5-iodopyrid-2-yl)piperazine-1-carboxylate","102.0 - 105.0","?C","376.5","K","","","","","","-","","-","","-","","-"
"NS(=O)(=O)C1=CC=C(C=C1)C1=CC=C(O1)C=O","-","-","-","4-(5-Formyl-2-furyl)benzene-1-sulfonamide","199.0 - 201.0","?C","473.0","K","","","","","","-","","-","","-","","-"
"NC1=CC=C(CN2CCCCC2)C=C1","-","-","-","4-(Piperidin-1-ylmethyl)aniline","87.0 - 88.0","?C","360.5","K","","","","","","-","","-","","-","","-"
"OC1CCN(CC1)C1=NC(=CC=N1)C(F)(F)F","-","-","-","1-[4-(Trifluoromethyl)-2-pyrimidinyl]-4-piperidinol","99.0 - 100.0","?C","372.5","K","","","","","","-","","-","","-","","-"
"CN1CC(Br)C(=O)NC1=O","-","-","-","5-Bromo-1-methylhexahydropyrimidine-2,4-dione","153.0 - 155.0","?C","427.0","K","","","","","","-","","-","","-","","-"
"CCOC(=O)C1=CC2=CC=CC=C2C=C1O","-","-","-","Ethyl 3-hydroxy-2-naphthoate","80.0 - 81.0","?C","353.5","K","","","","","","-","","-","","-","","-"
"OC(=O)CCC1=CC(Br)=C(O)C(Br)=C1","-","-","-","3-(3,5-Dibromo-4-hydroxyphenyl)propanoic acid","108.0 - 110.0","?C","382.0","K","","","","","","-","","-","","-","","-"
"CC1=C(SC(=N1)C1=CC=C(Cl)C=C1)C(O)=O","-","-","-","2-(4-Chlorphenyl)-4-methyl-1,3-thiazol-5-carbonsaeure","251.0","?C","524.0","K","","","","","","-","","-","","-","","-"
"CC1=NC(=CS1)C1=CC=C(C=C1)N=C=O","-","-","-","4-(4-Isocyanatphenyl)-2-methyl-1,3-thiazol","80.0 - 81.0","?C","353.5","K","","","","","","-","","-","","-","","-"
"O=CN(C=O)C=O","-","-","-","Triformamide","100.0 - 101.0","?C","373.5","K","","","","","","-","","-","","-","","-"
"O=CN(C=O)N(C=O)C=O","-","-","-","Tetraformylhydrazine","180.0 - 183.0","?C","454.5","K","","","","","","-","","-","","-","","-"
"NC1=CC=C(N2C=CC=C2)C(=C1)C#N","-","-","-","5-Amino-2-(1H-pyrrol-1-yl)benzonitrile","134.8 - 136.5","?C","408.6","K","","","","","","-","","-","","-","","-"
"CC(C)CC1=CC=C(C=C1)C(=O)C(C)Cl","-","-","-","2-Chloro-1-(4-isobutylphenyl)propan-1-one","52.0 - 54.0","?C","326.0","K","","","","","","-","","-","","-","","-"
"CC1=CC=C2C=CC=C2C=C1","-","-","-","6-Methylazulene","82.0 - 83.0","?C","355.5","K","","","","","","-","","-","","-","","-"
"OC1=CC=C(C(=O)COC2=CC=CC=C2)C(O)=C1","-","-","-","1-(2,4-Dihydroxyphenyl)-2-phenoxyethan-1-one","207.0 - 208.0","?C","480.5","K","","","","","","-","","-","","-","","-"
"NC1=C(Cl)C(Cl)=C(Cl)C(Cl)=C1","-","-","-","2,3,4,5-Tetrachloroaniline","118.0 - 119.0","?C","391.5","K","","","","","","-","","-","","-","","-"
"CN1C(=CC2=C1C=CO2)C(O)=O","-","-","-","4-Methyl-4H-furo[3,2-b]pyrrole-5-carboxylic acid","200.0","?C","473.0","K","","","","","","-","","-","","-","","-"
"OC1=CC(=NC2=CC=C(OC(F)(F)F)C=C12)C(F)(F)F","-","-","-","6-(Trifluoromethoxy)-2-(trifluoromethyl)quinolin-4-ol","229.0 - 232.0","?C","503.5","K","","","","","","-","","-","","-","","-"
"COC1=CC(=CC(OC)=C1)N=C=O","-","-","-","3,5-Dimethoxyphenyl isocyanate","34.0 - 35.5","?C","307.8","K","","","","","","-","","-","","-","","-"
"CC1=NC(=CS1)C1=CC=C(C=C1)C#N","-","-","-","4-(2-Methyl-1,3-thiazol-4-yl)benzonitrile","154.0","?C","427.0","K","","","","","","-","","-","","-","","-"
"CC1=NC(=C(C=C1C1=NC(=CS1)C1=CC=CC=C1)C(O)=O)C(F)(F)F","-","-","-","6-Methyl-5-(4-phenyl-1,3-thiazol-2-yl)-2-(trifluoromethyl)nicotinic acid","188.0 - 190.0","?C","462.0","K","","","","","","-","","-","","-","","-"
"OCC1=NOC(=C1)C1=CC=CO1","-","-","-","[5-(2-Furyl)isoxazol-3-yl]methanol","90.0 - 91.0","?C","363.5","K","","","","","","-","","-","","-","","-"
"O=CC1=CC(CN2CCOCC2)=CC=C1","-","-","-","3-(Morpholinomethyl)benzaldehyde","63.0 - 64.0","?C","336.5","K","","","","","","-","","-","","-","","-"
"NC1=CC(CN2CCOCC2)=CC=C1","-","-","-","3-(Morpholin-4-ylmethyl)aniline","73.0 - 75.0","?C","347.0","K","","","","","","-","","-","","-","","-"
"CC1=NC(=CS1)C1=CC=C(CBr)C=C1","-","-","-","4-[4-(Bromomethyl)phenyl]-2-methyl-1,3-thiazole","73.0 - 76.0","?C","347.5","K","","","","","","-","","-","","-","","-"
"OCC1=CC(OCCN2CCOCC2)=CC=C1","-","-","-","[3-(2-Morpholinoethoxy)phenyl]methanol","55.0 - 60.0","?C","330.5","K","","","","","","-","","-","","-","","-"
"OC(=O)C1=C(N=C(S1)C1=CC=CC=C1)C1=CC=CC=C1","-","-","-","2,4-Diphenyl-1,3-thiazole-5-carboxylic acid","212.0 - 216.0","?C","487.0","K","","","","","","-","","-","","-","","-"
"NC1=CC(CN2CCCCC2)=CC=C1","-","-","-","3-(Piperidin-1-ylmethyl)aniline","106.0 - 109.0","?C","380.5","K","","","","","","-","","-","","-","","-"
"CSC1=C(C#N)C(=C(S1)C(O)=O)C1=CC(=CC=C1)C(F)(F)F","-","-","-","4-Cyano-5-(methylthio)-3-[3-(trifluoromethyl)phenyl]thiophene-2-carboxylic acid","232.0 - 234.5","?C","506.2","K","","","","","","-","","-","","-","","-"
"OC(=O)C1C(N(CC2=CC=C(F)C=C2)C(=O)C2=C1C=CC=C2)C1=CC=NC=C1","-","-","-","2-(4-Fluorobenzyl)-1-oxo-3-pyridin-4-yl-1,2,3,4-tetrahydroisoquinoline-4-carboxylic acid","243.0 - 245.0","?C","517.0","K","","","","","","-","","-","","-","","-"
"CC(=O)NC1=CC=C(C=C1)C1=NC2=CC=CC=C2C(=C1)C(O)=O","-","-","-","2-[4-(Acetylamino)phenyl]quinoline-4-carboxylic acid","274.5 - 275.5","?C","548.0","K","","","","","","-","","-","","-","","-"
"CC(C)(C)C1=CC(=C2OC(=CC(=O)C2=C1)C(O)=O)C(C)(C)C","-","-","-","6,8-Di(tert-butyl)-4-oxo-4H-chromene-2-carboxylic acid","229.0 - 236.0","?C","505.5","K","","","","","","-","","-","","-","","-"
"OC(=O)CCC(=O)C1=CC=CS1","-","-","-","4-oxo-4-(2-thienyl)butanoic acid","121.0 - 122.0","?C","394.5","K","","","","","","-","","-","","-","","-"
"CSC1=NC=CC=C1C(=O)NC(CC(C)C)C(O)=O","-","-","-","4-Methyl-2-({[2-(methylthio)-3-pyridyl]carbonyl}amino)pentanoic acid","143.0 - 146.0","?C","417.5","K","","","","","","-","","-","","-","","-"
"CC(=O)C1=CC=CC=C1NC=O","-","-","-","N-(2-Acetylphenyl)formamide","65.0 - 68.0","?C","339.5","K","","","","","","-","","-","","-","","-"
"CC(C)(C)OC(=O)N1CSCC1C(O)=O","-","-","-","(4R)-3-(tert-Butoxycarbonyl)-1,3-thiazolane-4-carboxylic acid","132.0 - 136.0","?C","407.0","K","","","","","","-","","-","","-","","-"
"NNC(=O)CCC1=CC=C(O)C=C1","-","-","-","3-(4-Hydroxyphenyl)propanohydrazide","223.0 - 225.0","?C","497.0","K","","","","","","-","","-","","-","","-"
"COC1=CC(=C(Cl)C=C1NC(C)=O)[N+]([O-])=O","-","-","-","N1-(5-Chloro-2-methoxy-4-nitrophenyl)acetamide","185.0","?C","458.0","K","","","","","","-","","-","","-","","-"
"NC1=C(Cl)C(Cl)=NC(Cl)=C1Cl","-","-","-","2,3,5,6-Tetrachloropyridin-4-amine","212.0 - 215.0","?C","486.5","K","","","","","","-","","-","","-","","-"
"CNCC1=NN(C)C2=CC=CC=C12","-","-","-","N-Methyl-N-[(1-methyl-1H-indazol-3-yl)methyl]amine","37.0 - 40.0","?C","311.5","K","","","","","","-","","-","","-","","-"
"BrC1=CC=C2SC=C(C=O)C2=C1","-","-","-","5-Bromobenzo[b]thiophene-3-carbaldehyde","106.0 - 107.0","?C","379.5","K","","","","","","-","","-","","-","","-"
"OCC1=CSC2=CC=C(Br)C=C12","-","-","-","(5-Bromo-3-benzo[b]thienyl)methanol","79.0 - 81.0","?C","353.0","K","","","","","","-","","-","","-","","-"
"OCC1=CC=C(C=C1)C1=CC=CO1","-","-","-","[4-(2-Furyl)phenyl]methanol","85.0 - 86.0","?C","358.5","K","","","","","","-","","-","","-","","-"
"O=CC1=NOC(=C1)C1=CC=CO1","-","-","-","5-(2-Furyl)isoxazole-3-carbaldehyde","60.0 - 61.0","?C","333.5","K","","","","","","-","","-","","-","","-"
"CN1C=CC2=CC(N)=CC=C12","-","-","-","1-Methyl-1H-indol-5-amine","102.0 - 103.0","?C","375.5","K","","","","","","-","","-","","-","","-"
"OC(=O)C1=C(C=CC=C1)C1=CC=CN=C1","-","-","-","2-Pyrid-3-ylbenzoic acid","188.0","?C","461.0","K","","","","","","-","","-","","-","","-"
"O=CC1=CC=CC=C1OCCN1CCOCC1","-","-","-","2-(2-Morpholinoethoxy)benzaldehyde","43.0 - 45.0","?C","317.0","K","","","","","","-","","-","","-","","-"
"ClC(=O)C1=C(N=C(S1)C1=CC=CC=C1)C1=CC=CC=C1","-","-","-","2,4-Diphenyl-1,3-thiazole-5-carbonyl chloride","139.0","?C","412.0","K","","","","","","-","","-","","-","","-"
"CN1C(CO)=CC2=C1C=CO2","-","-","-","(4-Methyl-4H-furo[3,2-b]pyrrol-5-yl)methanol","74.0 - 76.0","?C","348.0","K","","","","","","-","","-","","-","","-"
"NC1=CC(CN2C=NC=N2)=CC=C1","-","-","-","3-(1H-1,2,4-Triazol-1-ylmethyl)aniline","88.0 - 89.0","?C","361.5","K","","","","","","-","","-","","-","","-"
"OC(=O)C1=C2OCCOC2=CS1","-","-","-","2,3-Dihydrothieno[3,4-b][1,4]dioxine-5-carboxylic acid","205.0 - 206.0","?C","478.5","K","","","","","","-","","-","","-","","-"
"O=CC1=C2OCCOC2=CS1","-","-","-","2,3-Dihydrothieno[3,4-b][1,4]dioxine-5-carbaldehyde","138.0 - 140.0","?C","412.0","K","","","","","","-","","-","","-","","-"
"N#CC(=CC1=CC=CS1)C#N","-","-","-","2-(2-Thienylmethylidene)malononitrile","91.0 - 92.0","?C","364.5","K","","","","","","-","","-","","-","","-"
"CC(C)(C)OC(=O)N1CCC(CC1)C(=O)C1=CC=C(F)C=C1","-","-","-","tert-Butyl 4-(4-fluorobenzoyl)piperidine-1-carboxylate","89.0 - 91.0","?C","363.0","K","","","","","","-","","-","","-","","-"
"COC(=O)C1=CC2=C(C=C(O2)C=O)N1C","-","-","-","Methyl 2-formyl-4-methyl-4H-furo[3,2-b]pyrrole-5-carboxylate","162.0 - 163.0","?C","435.5","K","","","","","","-","","-","","-","","-"
"COC1=C(N)C=C(Cl)C(=C1)[N+]([O-])=O","-","-","-","5-Chloro-2-methoxy-4-nitroaniline","131.0 - 133.0","?C","405.0","K","","","","","","-","","-","","-","","-"
"OC1=CC=CC(C=CC(=O)C2=CC=CC=C2)=C1","-","-","-","3-(3-Hydroxyphenyl)-1-phenylprop-2-en-1-one","156.0 - 158.0","?C","430.0","K","","","","","","-","","-","","-","","-"
"CCOC(=O)C1=NOC(=C1)C1=CC=CC=C1","-","-","-","Ethyl 5-phenyl-3-isoxazolecarboxylate","48.0 - 49.5","?C","321.8","K","","","","","","-","","-","","-","","-"
"O=CN(C=O)C(N(C=O)C=O)N(C=O)C=O","-","-","-","Tris(diformylamino)methane","145.0","?C","418.0","K","","","","","","-","","-","","-","","-"
"OCCN1CCN(CC1)C1=NC=C(Cl)C=C1C(F)(F)F","-","-","-","2-{4-[5-Chloro-3-(trifluoromethyl)-2-pyridyl]piperazino}ethan-1-ol","58.0 - 59.0","?C","331.5","K","","","","","","-","","-","","-","","-"
"OCCN1CCN(CC1)C1=NC=C(C=C1Cl)C(F)(F)F","-","-","-","2-{4-[3-Chloro-5-(trifluoromethyl)-2-pyridyl]piperazino}ethan-1-ol","62.0 - 66.0","?C","337.0","K","","","","","","-","","-","","-","","-"
"OCCN1CCN(CC1)C1=NC2=C(S1)C=C(Cl)C=C2","-","-","-","2-[4-(6-Chloro-1,3-benzothiazol-2-yl)piperazino]ethan-1-ol","128.0 - 130.0","?C","402.0","K","","","","","","-","","-","","-","","-"
"OCCN1CCN(CC1)C1=NC=CC=C1[N+]([O-])=O","-","-","-","2-[4-(3-Nitro-2-pyridyl)piperazino]ethan-1-ol","82.0 - 83.0","?C","355.5","K","","","","","","-","","-","","-","","-"
"OCCN1CCN(CC1)C1=NC(=CC=N1)C(F)(F)F","-","-","-","2-{4-[4-(Trifluoromethyl)pyrimidin-2-yl]piperazino}ethan-1-ol","70.0 - 71.0","?C","343.5","K","","","","","","-","","-","","-","","-"
"CC(=O)NC1=CC(Cl)=CC=C1C(O)=O","-","-","-","2-(Acetylamino)-4-chlorobenzoic acid","202.0 - 207.0","?C","477.5","K","","","","","","-","","-","","-","","-"
"CC(=O)C1=CC2=CC(Br)=CC=C2OC1=O","-","-","-","3-acetyl-6-bromo-2H-chromen-2-one","227.0 - 29.0","?C","401.0","K","","","","","","-","","-","","-","","-"
"OC1=CC=C(CCC2=NN=C(S)N2C2=CC=C(F)C=C2)C=C1","-","-","-","4-{2-[4-(4-Fluorophenyl)-5-mercapto-4H-1,2,4-triazol-3-yl]ethyl}phenol","204.0 - 205.0","?C","477.5","K","","","","","","-","","-","","-","","-"
"[O-][N+](=O)C1=CC(=CC=C1N1CCOCC1)C(F)(F)F","-","-","-","4-[2-Nitro-4-(trifluoromethyl)phenyl]morpholine","34.0 - 36.0","?C","308.0","K","","","","","","-","","-","","-","","-"
"[O-][N+](=O)C1=CC(=CC=C1N1CCCC1)C(F)(F)F","-","-","-","1-[2-Nitro-4-(trifluoromethyl)phenyl[pyrrolidine","54.0 - 56.0","?C","328.0","K","","","","","","-","","-","","-","","-"
"NNC(=O)C(O)(C1=CC=CC=C1)C1=CC=CC=C1","-","-","-","2-Hydroxy-2,2-diphenylethanohydrazide","168.0 - 169.0","?C","441.5","K","","","","","","-","","-","","-","","-"
"N#CC1=C(N2C=CC=C2)N(N=C1)C1=CC=CC=C1","-","-","-","1-Phenyl-5-(1H-pyrrol-1-yl)-1H-pyrazole-4-carbonitrile","81.0 - 83.0","?C","355.0","K","","","","","","-","","-","","-","","-"