"SMILES","CASRN","EXTERNALID","N","NAME","Melting Point","UNIT {Melting Point}","Melting Point {measured, converted}","UNIT {Melting Point}","Dataset","comment (property)","comment (chemical)","measurement method","Pressure","UNIT {Pressure}","Som set numeric condition","UNIT {Som set numeric condition}","Resp set numeric condition","UNIT {Resp set numeric condition}","Quality code","UNIT {Quality code}"
"O=C(C1=CC2=C(C=C1)C(=O)OC2=O)C1=CC=C2C(=O)OC(=O)C2=C1","-","-","-","3,3',4,4'-Benzophenonetetracarboxylic dianhydride","219.0 - 226.0","?C","495.5","K","","","","","","-","","-","","-","","-"
"OC(C1=CC=CC=C1)(C1=CC=CC=C1)C(O)(C1=CC=CC=C1)C1=CC=CC=C1","-","-","-","Benzopinacole","184.0 - 186.0","?C","458.0","K","","","","","","-","","-","","-","","-"
"NC(CSCC1=CC=CC=C1)C(O)=O","-","-","-","S-benzyl-L-cysteine","209.0 - 214.0","?C","484.5","K","","","","","","-","","-","","-","","-"
"OC1(CC2=CC=CC=C2)CCNCC1","-","-","-","4-Benzyl-4-hydroxypiperidine","80.0 - 85.0","?C","355.5","K","","","","","","-","","-","","-","","-"
"O=C1C2=CC=CC=C2C(C2=C1C=CC=C2)=C1C2=CC=CC=C2C(=O)C2=C1C=CC=C2","-","-","-","Bianthrone","300.0","?C","573.0","K","","","","","","-","","-","","-","","-"
"BrCC1=C(CBr)N=C2C=CC=CC2=N1","-","-","-","2,3-Bis(bromomethyl)quinoxaline","150.0 - 154.0","?C","425.0","K","","","","","","-","","-","","-","","-"
"C(CC1=CC=NC=C1)C1=CC=NC=C1","-","-","-","1,2-Bis(4-pyridyl)ethane","107.0 - 113.0","?C","383.0","K","","","","","","-","","-","","-","","-"
"OC(=O)CC1=CNC2=C1C=C(Br)C=C2","-","-","-","5-Bromoindole-3-acetic acid","141.0 - 148.0","?C","417.5","K","","","","","","-","","-","","-","","-"
"CC1=CC(Br)=C(O)C=C1","-","-","-","2-bromo-4-methylphenol","213.0 - 214.0","?C","486.5","K","","","","","","-","","-","","-","","-"
"OC(=O)CC(Br)C(O)=O","-","-","-","DL-Bromosuccinic acid","160.0 - 166.0","?C","436.0","K","","","","","","-","","-","","-","","-"
"NC(CC1=CNC2=C1C=C(Br)C=C2)C(O)=O","-","-","-","5-bromo-DL-tryptophan","261.0 - 267.0","?C","537.0","K","","","","","","-","","-","","-","","-"
"CCOC(=O)C=P(C1=CC=CC=C1)(C1=CC=CC=C1)C1=CC=CC=C1","-","-","-","(Carbethoxymethylene)triphenylphosphorane","124.0 - 129.0","?C","399.5","K","","","","","","-","","-","","-","","-"
"NC(=O)CC(NC(=O)OCC1=CC=CC=C1)C(O)=O","-","-","-","Nalpha-Carbobenzyloxy-L-asparagine","160.0 - 165.0","?C","435.5","K","","","","","","-","","-","","-","","-"
"NC(CCCCNC(=O)OCC1=CC=CC=C1)C(O)=O","-","-","-","N epsilon-Carbobenzyloxy-L-lysine","259.0","?C","532.0","K","","","","","","-","","-","","-","","-"
"OCC(NC(=O)OCC1=CC=CC=C1)C(O)=O","-","-","-","N-Carbobenzyloxy-DL-serine","122.0 - 126.0","?C","397.0","K","","","","","","-","","-","","-","","-"
"NS(=O)(=O)C1=CC=C(C=C1)C(O)=O","-","-","-","4-Carboxybenzenesulfonamide","266.0 - 268.0","?C","540.0","K","","","","","","-","","-","","-","","-"
"OC(=O)CCCSSCCCC(O)=O","-","-","-","3-Carboxypropyl disulfide","105.0 - 110.0","?C","380.5","K","","","","","","-","","-","","-","","-"
"ClC1=CC2=C(NN=N2)C=C1","-","-","-","5-Chlorobenzotriazole","155.0 - 159.0","?C","430.0","K","","","","","","-","","-","","-","","-"
"OC(=O)C=CC1=C(Cl)C=CC=C1","-","-","-","2-Chlorocinnamic acid","209.0 - 212.0","?C","483.5","K","","","","","","-","","-","","-","","-"
"OC(=O)C=CC1=CC=CC(Cl)=C1","-","-","-","3-CHLOROCINNAMIC ACID","163.0 - 166.0","?C","437.5","K","","","","","","-","","-","","-","","-"
"NC1=NC(Cl)=NC(N)=N1","-","-","-","2-Chloro-4,6-diamino-1,3,5-triazine","320.0","?C","593.0","K","","","","","","-","","-","","-","","-"
"COC1=CC(OC)=C(N)C=C1Cl","-","-","-","5-Chloro-2,4-dimethoxyaniline","89.0 - 92.0","?C","363.5","K","","","","","","-","","-","","-","","-"
"OC1CC(O)(CC(OC(=O)C=CC2=CC=C(O)C(O)=C2)C1O)C(O)=O","-","-","-","Chlorogenic Acid","205.0 - 209.0","?C","480.0","K","","","","","","-","","-","","-","","-"
"OC(=O)C1=CC2=C(N1)C=CC(Cl)=C2","-","-","-","5-Chloroindole-2-carboxylic acid","283.0 - 287.0","?C","558.0","K","","","","","","-","","-","","-","","-"
"ClCC1=NC2=CC=CC=C2N1","-","-","-","2-Chloromethylbenzimidazole","146.0 - 150.0","?C","421.0","K","","","","","","-","","-","","-","","-"
"CC1=CC2=C(N1)C=CC(Cl)=C2","-","-","-","5-Chloro-2-methylindole","112.0 - 118.0","?C","388.0","K","","","","","","-","","-","","-","","-"
"OC1=CC=C(Cl)C2=CC=CC=C12","-","-","-","4-CHLORO-1-NAPHTHOL","117.0 - 120.0","?C","391.5","K","","","","","","-","","-","","-","","-"
"CN1C2=C(NC(Cl)=N2)C(=O)N(C)C1=O","-","-","-","8-CHLOROTHEOPHYLLINE","290.0","?C","563.0","K","","","","","","-","","-","","-","","-"
"CC(C)CCCC(C)C1CCC2C3CC=C4CC(CCC4(C)C3CCC12C)OC(=O)C1=CC=CC=C1","-","-","-","CHOLESTERYL BENZOATE","149.0 - 150.0","?C","422.5","K","","","","","","-","","-","","-","","-"
"CCCCCCCCCCCCCCCC(=O)OC1CCC2(C)C3CCC4(C)C(CCC4C3CC=C2C1)C(C)CCCC(C)C","-","-","-","Cholesteryl palmitate","75.0 - 77.0","?C","349.0","K","","","","","","-","","-","","-","","-"
"CCCCCCCCCCCCCCCCCC(=O)OC1CCC2(C)C3CCC4(C)C(CCC4C3CC=C2C1)C(C)CCCC(C)C","-","-","-","Cholesteryl stearate","79.0 - 83.0","?C","354.0","K","","","","","","-","","-","","-","","-"
"CC1=CC(C)=C(C#N)C(O)=N1","-","-","-","3-Cyano-4,6-dimethyl-2-hydroxypyridine","285.0 - 287.0","?C","559.0","K","","","","","","-","","-","","-","","-"
"OC(=O)C1(CCC1)C(O)=O","-","-","-","1,1-Cyclobutanedicarboxylic acid","157.0 - 161.0","?C","432.0","K","","","","","","-","","-","","-","","-"
"S=C(NCCN1CCOCC1)NC1CCCCC1","-","-","-","1-Cyclohexyl-3-(2-morpholinoethyl)thiourea","125.0 - 126.0","?C","398.5","K","","","","","","-","","-","","-","","-"
"OC(=O)C(C1CCCCC1)C1=CC=CC=C1","-","-","-","Cyclohexylphenylacetic acid","148.0 - 151.0","?C","422.5","K","","","","","","-","","-","","-","","-"
"NC1=C(N)C=C(C=C1)C(O)=O","-","-","-","3,4-Diaminobenzoic acid","215.0","?C","488.0","K","","","","","","-","","-","","-","","-"
"NC1=CC(=CC(N)=C1)C(O)=O","-","-","-","3,5-Diaminobenzoic acid","235.0","?C","508.0","K","","","","","","-","","-","","-","","-"
"NC1=NC(N)=NC(O)=C1","-","-","-","2,4-Diamino-6-hydroxypyrimidine","285.0 - 286.0","?C","558.5","K","","","","","","-","","-","","-","","-"
"O=S1(=O)C2=CC=CC=C2C2=C1C=CC=C2","-","-","-","Dibenzothiophene sulfone","231.0 - 236.0","?C","506.5","K","","","","","","-","","-","","-","","-"
"OC1=C(Br)C2=CC=C(Br)C=C2C=C1","-","-","-","1,6-Dibromo-2-naphthol","105.0 - 107.0","?C","379.0","K","","","","","","-","","-","","-","","-"
"CC(C)(C)C1=CC(O)=C(O)C(=C1)C(C)(C)C","-","-","-","3,5-di(tert-butyl)benzene-1,2-diol","96.0 - 99.0","?C","370.5","K","","","","","","-","","-","","-","","-"
"NC1=C(C=C(Cl)C=C1Cl)C(O)=O","-","-","-","2-Amino-3,5-dichlorobenzoic acid","227.0 - 230.0","?C","501.5","K","","","","","","-","","-","","-","","-"
"OC(=O)C1=C(Cl)C(=C(Cl)C(=C1)[N+]([O-])=O)[N+]([O-])=O","-","-","-","2,4-Dichloro-3,5-dinitrobenzoic acid","210.0 - 215.0","?C","485.5","K","","","","","","-","","-","","-","","-"
"NC1=C(N)C=C(Cl)C(Cl)=C1","-","-","-","4,5-DICHLORO-O-PHENYLENEDIAMINE","162.0 - 163.0","?C","435.5","K","","","","","","-","","-","","-","","-"
"ClC1=NC2=C(N=CN2)C(Cl)=N1","-","-","-","2,6-Dichloropurine","184.0 - 186.0","?C","458.0","K","","","","","","-","","-","","-","","-"
"OC(=O)CN(CCN(CC(O)=O)CC(O)=O)CCN(CC(O)=O)CC(O)=O","-","-","-","DIETHYLENETRIAMINEPENTAACETIC ACID","220.0","?C","493.0","K","","","","","","-","","-","","-","","-"
"OC(=O)CC1=CC(O)=C(CC(O)=O)C=C1O","-","-","-","2,5-Dihydroxy-1,4-benzenediacetic acid","234.0 - 236.0","?C","508.0","K","","","","","","-","","-","","-","","-"
"OC(=O)C1=C(O)C=CC=C1O","-","-","-","2,6-Dihydroxybenzoic Acid","160.0 - 165.0","?C","435.5","K","","","","","","-","","-","","-","","-"
"OC(=O)C1=CC(O)=CC(O)=C1","-","-","-","3,5-DIHYDROXYBENZOIC ACID","235.0 - 240.0","?C","510.5","K","","","","","","-","","-","","-","","-"
"OC1=CC(O)=NC(S)=N1","-","-","-","4,6-Dihydroxy-2-mercaptopyrimidine","240.0 - 255.0","?C","520.5","K","","","","","","-","","-","","-","","-"
"CC1=CC(O)=NC(O)=N1","-","-","-","2,4-Dihydroxy-6-methylpyrimidine","318.0","?C","591.0","K","","","","","","-","","-","","-","","-"
"CC1=NC(O)=CC(O)=N1","-","-","-","4,6-Dihydroxy-2-methylpyrimidine","360.0","?C","633.0","K","","","","","","-","","-","","-","","-"
"OC1=CC(O)=NC=N1","-","-","-","4,6-DIHYDROXYPYRIMIDINE","300.0","?C","573.0","K","","","","","","-","","-","","-","","-"
"OC(=O)C1=CC(O)=C2C=CC=C(O)C2=N1","-","-","-","4,8-Dihydroxyquinoline-2-carboxylic acid","297.0 - 298.0","?C","570.5","K","","","","","","-","","-","","-","","-"
"O=C1NC2=CC=CC=C2NC1=O","-","-","-","2,3-Dihydroxyquinoxaline","300.0","?C","573.0","K","","","","","","-","","-","","-","","-"
"NC1=C(I)C=C(C=C1I)[N+]([O-])=O","-","-","-","2,6-Diiodo-4-nitroaniline","251.0 - 256.0","?C","526.5","K","","","","","","-","","-","","-","","-"
"CC(C)N(CCCl)C(C)C","-","-","-","2-Diisopropylaminoethyl chloride hydrochloride","130.0 - 135.0","?C","405.5","K","","","","","","-","","-","","-","","-"
"SC1=NN=C(S)S1","-","-","-","2,5-Dimercapto-1,3,4-thiadiazole","161.0 - 165.0","?C","436.0","K","","","","","","-","","-","","-","","-"
"COC1=CC=CC(OC)=C1C(O)=O","-","-","-","2,6-DIMETHOXYBENZOIC ACID","187.0 - 190.0","?C","461.5","K","","","","","","-","","-","","-","","-"
"COC1=CC(C=CC(O)=O)=CC(OC)=C1","-","-","-","3,5-Dimethoxycinnamic acid","173.0 - 176.0","?C","447.5","K","","","","","","-","","-","","-","","-"
"COC1=CC(=CC(OC)=C1O)C(C)=O","-","-","-","3',5'-Dimethoxy-4'-hydroxyacetophenone","123.0 - 128.0","?C","398.5","K","","","","","","-","","-","","-","","-"
"COC1=CC(C=CC(O)=O)=CC(OC)=C1O","-","-","-","3,5-Dimethoxy-4-hydroxycinnamic acid","203.0 - 205.0","?C","477.0","K","","","","","","-","","-","","-","","-"
"CC1=CC2=C(C=C1C)N=NN2","-","-","-","5,6-Dimethyl-1H-benzotriazole hydrate","153.0 - 156.0","?C","427.5","K","","","","","","-","","-","","-","","-"
"CC1=NN(C(N)=O)C(C)=C1","-","-","-","3,5-Dimethylpyrazole-1-carboxamide","113.0 - 115.0","?C","387.0","K","","","","","","-","","-","","-","","-"
"CC(C(C)C(O)=O)C(O)=O","-","-","-","2,3-Dimethylsuccinic acid","120.0","?C","393.0","K","","","","","","-","","-","","-","","-"
"NN=C1C(C(=O)C(C2=CC=CC=C2)C2=CC=CC=C2)C(=O)C2=CC=CC=C12","-","-","-","2-Diphenylacetyl-1,3-indandione-1-hydrazone","241.0 - 243.0","?C","515.0","K","","","","","","-","","-","","-","","-"
"C(=CC=CC1=CC=CC=C1)C=CC1=CC=CC=C1","-","-","-","1,6-Diphenyl-1,3,5-hexatriene","199.0 - 203.0","?C","474.0","K","","","","","","-","","-","","-","","-"
"O=C1C2=CC=CC=C2C(=C1C1=CC=CC=C1)C1=CC=CC=C1","-","-","-","2,3-Diphenyl-1-indenone","151.0 - 155.0","?C","426.0","K","","","","","","-","","-","","-","","-"
"OC(=O)CC(C1=CC=CC=C1)C1=CC=CC=C1","-","-","-","3,3-Diphenylpropionic acid","150.0 - 155.0","?C","425.5","K","","","","","","-","","-","","-","","-"
"C1=CC=C(C=C1)C(C1=CC=CC=C1)C1=NC=CC=C1","-","-","-","Diphenyl-2-pyridylmethane","54.0 - 61.0","?C","330.5","K","","","","","","-","","-","","-","","-"
"OC(=O)CN(CCN(CC(O)=O)CC(O)=O)CC(O)=O","-","-","-","Ethylenediaminetetraacetic acid","220.0","?C","493.0","K","","","","","","-","","-","","-","","-"
"CCOC(=O)C1=C(C)NC2=C1C=C(O)C=C2","-","-","-","Ethyl 5-hydroxy-2-methylindole-3-carboxylate","206.0 - 210.0","?C","481.0","K","","","","","","-","","-","","-","","-"
"CCOC(=O)C(N)=O","-","-","-","Ethyl oxamate","112.0 - 115.0","?C","386.5","K","","","","","","-","","-","","-","","-"
"CCNC(=S)NN","-","-","-","4-Ethyl-3-thiosemicarbazide","80.0 - 85.0","?C","355.5","K","","","","","","-","","-","","-","","-"
"OC1=CC2=C(C=C1)C1(OC(=O)C3=C1C=CC(=C3)N=C=S)C1=CC=C(O)C=C1O2","-","-","-","Fluorescein isothiocyanate isomer I","360.0","?C","633.0","K","","","","","","-","","-","","-","","-"
"CC1=C(F)C=C(C=C1)C(O)=O","-","-","-","3-Fluoro-4-methylbenzoic acid","170.0 - 175.0","?C","445.5","K","","","","","","-","","-","","-","","-"
"NC(=N)S(O)=O","-","-","-","Formamidinesulfinic acid","126.0","?C","399.0","K","","","","","","-","","-","","-","","-"
"OC(=O)C1=C(O)C=CC(C=O)=C1","-","-","-","5-Formylsalicylic acid","250.0","?C","523.0","K","","","","","","-","","-","","-","","-"
"OC(=O)C=CC(O)=O","-","-","-","FUMARIC ACID","295.0 - 300.0","?C","570.5","K","","","","","","-","","-","","-","","-"
"CC(C)(C)C1=CC(C=C2C=C(C(=O)C(=C2)C(C)(C)C)C(C)(C)C)=CC(=C1O)C(C)(C)C","-","-","-","Galvinoxyl free radical","156.0 - 160.0","?C","431.0","K","","","","","","-","","-","","-","","-"
"CC12C3C(C(O)=O)C45CC(=C)C(O)(C4)CCC5C3(OC1=O)C=CC2O","-","-","-","gibberellic acid","227.0","?C","500.0","K","","","","","","-","","-","","-","","-"
"NC(CCC(N)=O)C(O)=O","-","-","-","L(+)-Glutamine","185.0","?C","458.0","K","","","","","","-","","-","","-","","-"
"O=C1CNC(=O)CN1","-","-","-","GLYCINE ANHYDRIDE","300.0","?C","573.0","K","","","","","","-","","-","","-","","-"
"O=C1NC2NC(=O)NC2N1","-","-","-","Glycoluril","300.0","?C","573.0","K","","","","","","-","","-","","-","","-"
"NCC(=O)NCC(O)=O","-","-","-","Glycylglycine","262.0 - 264.0","?C","536.0","K","","","","","","-","","-","","-","","-"
"OC1=CC=CC=C1N=CC=NC1=C(O)C=CC=C1","-","-","-","Glyoxalbis(2-hydroxyanil)","201.0 - 205.0","?C","476.0","K","","","","","","-","","-","","-","","-"
"NC(=N)NCC(O)=O","-","-","-","Guanidineacetic acid","300.0","?C","573.0","K","","","","","","-","","-","","-","","-"
"NC1=NC2=C(N=CN2)C(=O)N1","-","-","-","Guanine","360.0","?C","633.0","K","","","","","","-","","-","","-","","-"
"CN1C=C(Cl)C(C=O)=N1","-","-","-","4-Chloro-1-methyl-1H-pyrazole-3-carbaldehyde","82.0","?C","355.0","K","","","","","","-","","-","","-","","-"
"CN1C=C(Br)C(C=O)=N1","-","-","-","4-Bromo-1-methyl-1H-pyrazole-3-carbaldehyde","71.0 - 72.0","?C","344.5","K","","","","","","-","","-","","-","","-"
"OC(=O)C1=C(C=CN=C1)C(F)(F)F","-","-","-","4-(Trifluoromethyl)nicotinic acid","150.0","?C","423.0","K","","","","","","-","","-","","-","","-"
"BrC1=C(NN=C1)C=O","-","-","-","4-Bromo-1H-pyrazole-5-carbaldehyde","80.0 - 82.0","?C","354.0","K","","","","","","-","","-","","-","","-"
"CSC1=C(C#N)C(N)=NC(=N1)C1=CC=C(C)C=C1","-","-","-","4-Amino-2-(4-methylphenyl)-6-(methylthio)pyrimidine-5-carbonitrile","213.0 - 214.0","?C","486.5","K","","","","","","-","","-","","-","","-"
"NC(=NO)C1=C(C=CN=C1)C(F)(F)F","-","-","-","N'-Hydroxy-4-(trifluoromethyl)pyridine-3-carboximidamide","183.0 - 185.0","?C","457.0","K","","","","","","-","","-","","-","","-"
"OC(=O)C1=CC(Cl)=NC(Cl)=C1","-","-","-","2,6-Dichloroisonicotinic acid","210.0 - 211.0","?C","483.5","K","","","","","","-","","-","","-","","-"
"COC(=O)C1=CC(OCC(F)(F)F)=CC=C1OCC(F)(F)F","-","-","-","Methyl 2,5-di(2,2,2-trifluoroethoxy)benzoate","40.0 - 41.0","?C","313.5","K","","","","","","-","","-","","-","","-"
"FC(F)(F)C1=CNC(=S)C=C1","-","-","-","5-(Trifluoromethyl)pyridine-2-thiol","159.0 - 160.0","?C","432.5","K","","","","","","-","","-","","-","","-"
"OC(=O)C1=CC=C(OCC(F)(F)F)N=C1","-","-","-","6-(2,2,2-Trifluoroethoxy)nicotinic acid","174.0","?C","447.0","K","","","","","","-","","-","","-","","-"
"[O-][N+](=O)C1=CC(=CNC1=O)C(F)(F)F","-","-","-","3-Nitro-5-(trifluoromethyl)pyridin-2-ol","189.0 - 190.0","?C","462.5","K","","","","","","-","","-","","-","","-"
"BrC1=CNN=C1C#N","-","-","-","4-Bromo-1H-pyrazole-3-carbonitrile","160.0","?C","433.0","K","","","","","","-","","-","","-","","-"
"NC1=CC=C(Cl)N=C1Cl","-","-","-","2,6-Dichloropyridin-3-amine","122.0 - 123.0","?C","395.5","K","","","","","","-","","-","","-","","-"
"CCOC(=O)C1=C(N)N(N=C1)C1=CC=C(F)C=C1","-","-","-","Ethyl 5-amino-1-(4-fluorophenyl)-1H-pyrazole-4-carboxylate","153.0 - 154.0","?C","426.5","K","","","","","","-","","-","","-","","-"
"CC1=CC2=C3N(CCCC3=C1)C(=O)C(=C2O)C1=CC=CC=C1","-","-","-","7-Hydroxy-9-methyl-6-phenyl-2,3-dihydro-1H,5H-pyrido[3,2,1-ij]quinolin-5-one","215.0 - 218.0","?C","489.5","K","","","","","","-","","-","","-","","-"
"O=C1NC(=S)NC(C2CCCCC2)=C1C#N","-","-","-","4-Cyclohexyl-2-mercapto-6-oxo-1,6-dihydropyrimidine-5-carbonitrile","300.0","?C","573.0","K","","","","","","-","","-","","-","","-"
"[O-][N+](=O)C1=CC=CN=C1NC1CC1","-","-","-","N2-Cyclopropyl-3-nitropyridin-2-amine","61.0 - 63.0","?C","335.0","K","","","","","","-","","-","","-","","-"
"NC1=C(F)C(F)=C(F)C=C1[N+]([O-])=O","-","-","-","2,3,4-Trifluoro-6-nitroaniline","46.0 - 48.0","?C","320.0","K","","","","","","-","","-","","-","","-"
"SC1=NC2=CC=CN=C2S1","-","-","-","Pyrido[3,2-d][1,3]thiazole-2-thiol","300.0","?C","573.0","K","","","","","","-","","-","","-","","-"
"COC(=O)C1=C(NC(C)=O)C(=CC=C1)[N+]([O-])=O","-","-","-","Methyl 2-(acetylamino)-3-nitrobenzoate","120.0 - 121.0","?C","393.5","K","","","","","","-","","-","","-","","-"
"COC1=CC=C(C(SC(C)C(O)=O)=N1)[N+]([O-])=O","-","-","-","2-[(6-Methoxy-3-nitro-2-pyridyl)thio]propanoic acid","196.0 - 199.0","?C","470.5","K","","","","","","-","","-","","-","","-"
"OC(=O)C1=C(C2=CC(=CC=C2N1)[N+]([O-])=O)C1=CC=CC=C1","-","-","-","5-Nitro-3-phenyl-1H-indole-2-carboxylic acid","290.0","?C","563.0","K","","","","","","-","","-","","-","","-"
"CC1=CC=C(C=C1)S(=O)(=O)N1C=C(C=O)C2=CC=CC=C12","-","-","-","1-[(4-Methylphenyl)sulfonyl]-1H-indole-3-carbaldehyde","138.0 - 140.0","?C","412.0","K","","","","","","-","","-","","-","","-"
"CC1=CC=C(C=C1)S(=O)(=O)N1C=C(C=CC(O)=O)C2=C1C=CC=C2","-","-","-","3-{1-[(4-Methylphenyl)sulfonyl]-1H-indol-3-yl}acrylic acid","238.0 - 241.0","?C","512.5","K","","","","","","-","","-","","-","","-"
"COC1=CC=C(OC2=C(N)C=C(C=C2)C(F)(F)F)C=C1","-","-","-","2-(4-Methoxyphenoxy)-5-(trifluoromethyl)aniline","73.0 - 75.0","?C","347.0","K","","","","","","-","","-","","-","","-"
"CC(C)CC1=CC=C(C=C1)C(=O)C(C)Br","-","-","-","2-Bromo-1-(4-isobutylphenyl)propan-1-one","63.0 - 64.0","?C","336.5","K","","","","","","-","","-","","-","","-"
"CC1=C(N2C=CC=CC2=N1)C(O)=O","-","-","-","2-methylimidazo[1,2-a]pyridine-3-carboxylic acid","140.0 - 142.0","?C","414.0","K","","","","","","-","","-","","-","","-"
"NNC(=O)C12CC3CC(CC(C3)C1)C2","-","-","-","Adamantane-1-carbohydrazide","151.0 - 153.0","?C","425.0","K","","","","","","-","","-","","-","","-"
"CC1=CC2=CC=C(F)C=C2C=C1","-","-","-","2-Fluoro-6-methylnaphthalene","73.0 - 74.0","?C","346.5","K","","","","","","-","","-","","-","","-"
"FC(F)(F)C1=CC(=CC(NC(=O)CCl)=C1)C(F)(F)F","-","-","-","N1-[3,5-Di(trifluoromethyl)phenyl]-2-chloroacetamide","85.0 - 88.0","?C","359.5","K","","","","","","-","","-","","-","","-"
"[O-][N+](=O)C1=C(C=CC(C=O)=C1)N1CCOCC1","-","-","-","4-Morpholino-3-nitrobenzaldehyde","53.0 - 55.0","?C","327.0","K","","","","","","-","","-","","-","","-"
"[O-][N+](=O)C1=CC=C2NC=C(C=O)C2=C1","-","-","-","5-Nitro-1H-indole-3-carbaldehyde","300.0","?C","573.0","K","","","","","","-","","-","","-","","-"
"CCOC(=O)C1=CSC(N)=N1","-","-","-","ethyl 2-amino-1,3-thiazole-4-carboxylate","177.0 - 178.0","?C","450.5","K","","","","","","-","","-","","-","","-"
"[O-][N+](=O)C1=CC(C=O)=C(C=C1)N1CCOCC1","-","-","-","2-Morpholino-5-nitrobenzaldehyde","115.0","?C","388.0","K","","","","","","-","","-","","-","","-"
"[O-][N+](=O)C1=CC(C=O)=C(C=C1)N1CCCC1","-","-","-","5-Nitro-2-pyrrolidin-1-yl-benzaldehyde","136.0 - 138.0","?C","410.0","K","","","","","","-","","-","","-","","-"
"CC1=C2C(=O)CC(C)(C)OC2=CC(O)=C1","-","-","-","7-Hydroxy-2,2,5-trimethyl-2,3-dihydro-4H-chromen-4-one","189.0 - 191.0","?C","463.0","K","","","","","","-","","-","","-","","-"
"CC1=C2OC(C)(C)CC(=O)C2=CC=C1O","-","-","-","7-Hydroxy-2,2,8-trimethyl-2,3-dihydro-4H-chromen-4-one","181.0 - 182.0","?C","454.5","K","","","","","","-","","-","","-","","-"
"CC1=NC(=CN1CCC(N)=NO)[N+]([O-])=O","-","-","-","N'-Hydroxy-3-(2-methyl-4-nitro-1H-imidazol-1-yl)propanimidamide","207.0","?C","480.0","K","","","","","","-","","-","","-","","-"
"COC1=CC=CC=C1C1CCN(CC1)C1=CC=C(C=O)C=C1[N+]([O-])=O","-","-","-","4-[4-(2-Methoxyphenyl)piperidino]-3-nitrobenzaldehyde","116.0 - 118.0","?C","390.0","K","","","","","","-","","-","","-","","-"
"COC1=CC=CC=C1C1CCN(CC1)C1=CC=C(C=CC(O)=O)C=C1[N+]([O-])=O","-","-","-","3-[4-[4-(2-Methoxyphenyl)piperidino]-3-nitrophenyl]acrylic acid","204.0 - 206.0","?C","478.0","K","","","","","","-","","-","","-","","-"
"CC(=CN)C=O","-","-","-","3-Amino-2-methylacrylaldehyde","101.0 - 103.0","?C","375.0","K","","","","","","-","","-","","-","","-"