"SMILES","CASRN","EXTERNALID","N","NAME","Melting Point","UNIT {Melting Point}","Melting Point {measured, converted}","UNIT {Melting Point}","Dataset","comment (property)","comment (chemical)","measurement method","Pressure","UNIT {Pressure}","Som set numeric condition","UNIT {Som set numeric condition}","Resp set numeric condition","UNIT {Resp set numeric condition}","Quality code","UNIT {Quality code}"
"OC(=O)C1=NC(Br)=CC=C1","-","-","-","6-Bromopicolinic acid","192.0 - 194.0","?C","466.0","K","","","","","","-","","-","","-","","-"
"OCC1=CC2=C(O1)C=CC(Br)=C2","-","-","-","(5-Bromo-1-benzofuran-2-yl)methanol","101.0 - 103.0","?C","375.0","K","","","","","","-","","-","","-","","-"
"OC(=O)C1=CN2C=CSC2=N1","-","-","-","Imidazo[2,1-b][1,3]thiazole-6-carboxylic acid","233.0 - 234.0","?C","506.5","K","","","","","","-","","-","","-","","-"
"CC1=CSC(=C1)C(N)=O","-","-","-","4-Methylthiophene-2-carboxamide","115.0 - 117.0","?C","389.0","K","","","","","","-","","-","","-","","-"
"CC1=NC(=CC=N1)C1=CC=CC(Br)=C1","-","-","-","4-(3-Bromophenyl)-2-methylpyrimidine","66.0 - 69.0","?C","340.5","K","","","","","","-","","-","","-","","-"
"OC(=O)C1=CC=CC=C1N1C=CN=C1","-","-","-","2-(1H-Imidazol-1-yl)benzoic acid","198.0 - 200.0","?C","472.0","K","","","","","","-","","-","","-","","-"
"OC(=O)C1=CC(=CC=C1)N1CCOCC1","-","-","-","3-Morpholinobenzoic acid","161.0 - 163.0","?C","435.0","K","","","","","","-","","-","","-","","-"
"CC1=CSC(C(Cl)=O)=C1Cl","-","-","-","3-Chloro-4-methyl-2-thiophenecarbonyl chloride","57.0 - 58.0","?C","330.5","K","","","","","","-","","-","","-","","-"
"ClC1=CC2=C(C=C1)N=C(S2)N1CCCNCC1","-","-","-","6-Chloro-2-(1,4-diazepan-1-yl)-1,3-benzothiazole","103.0 - 105.0","?C","377.0","K","","","","","","-","","-","","-","","-"
"N#CC1=CC=C(N=C1)N1CCCNCC1","-","-","-","6-(1,4-Diazepan-1-yl)nicotinonitrile","63.0 - 65.0","?C","337.0","K","","","","","","-","","-","","-","","-"
"ClC1=C(OCC2=CC=CC=C2)C=CC(C=O)=C1","-","-","-","4-(Benzyloxy)-3-chlorobenzaldehyde","93.0 - 94.0","?C","366.5","K","","","","","","-","","-","","-","","-"
"[O-][N+](=O)C1=CC=C(C=C1)C(=O)OC1OC(COCC2=CC=CC=C2)C(OCC2=CC=CC=C2)C1OCC1=CC=CC=C1","-","-","-","2,3,5-Tri-O-benzyl-1-O-(4-nitrobenzoyl)-D-alpha-arabinofuranose","92.0 - 94.0","?C","366.0","K","","","","","","-","","-","","-","","-"
"OCC1=CC(Cl)=NC(Cl)=C1","-","-","-","(2,6-Dichloro-4-pyridyl)methanol","128.0 - 130.0","?C","402.0","K","","","","","","-","","-","","-","","-"
"OC(=O)C1CCOCC1","-","-","-","Tetrahydro-2H-pyran-4-carboxylic acid","87.0 - 89.0","?C","361.0","K","","","","","","-","","-","","-","","-"
"OC(=O)C1=CC(Cl)=C(Cl)N=C1","-","-","-","5,6-Dichloronicotinic acid","163.0 - 168.0","?C","438.5","K","","","","","","-","","-","","-","","-"
"OC(=O)C1=CC=CC2=C1OCC2","-","-","-","2,3-Dihydrobenzo[b]furan-7-carboxylic acid","170.0 - 171.0","?C","443.5","K","","","","","","-","","-","","-","","-"
"O=CC1=CC=CC2=C1OCC2","-","-","-","2,3-Dihydro-1-benzofuran-7-carbaldehyde","54.0 - 55.0","?C","327.5","K","","","","","","-","","-","","-","","-"
"NC(=S)C1=C2OCCOC2=CC=C1","-","-","-","2,3-Dihydro-1,4-benzodioxine-5-carbothioamide","106.0 - 109.0","?C","380.5","K","","","","","","-","","-","","-","","-"
"OCC1=CC=C2N=CC=CC2=C1","-","-","-","6-Quinolinylmethanol","79.0 - 80.0","?C","352.5","K","","","","","","-","","-","","-","","-"
"N#CC1=CC2=C(OC=C2)C=C1","-","-","-","1-Benzofuran-5-carbonitrile","84.0 - 86.0","?C","358.0","K","","","","","","-","","-","","-","","-"
"OC(=O)C1=NC=CN1","-","-","-","1H-Imidazole-2-carboxylic acid","198.0","?C","471.0","K","","","","","","-","","-","","-","","-"
"CC1=C(SC(=N1)C1=CC=CC=C1)C(=O)CBr","-","-","-","2-Bromo-1-(4-methyl-2-phenyl-1,3-thiazol-5-yl)-1-ethanone","117.0 - 118.0","?C","390.5","K","","","","","","-","","-","","-","","-"
"CC1=C(CN)SC(=N1)C1=CC=CC=C1","-","-","-","(4-Methyl-2-phenyl-1,3-thiazol-5-yl)methanamine","230.0","?C","503.0","K","","","","","","-","","-","","-","","-"
"NCC1=CC=C(CN2CCOCC2)C=C1","-","-","-","4-(Morpholinomethyl)benzylamine","54.0 - 55.0","?C","327.5","K","","","","","","-","","-","","-","","-"
"OCC1=CC=C(O1)C1=CC(=CC(=C1)C(F)(F)F)C(F)(F)F","-","-","-","{5-[3,5-Di(trifluoromethyl)phenyl]-2-furyl}methanol","110.0 - 113.0","?C","384.5","K","","","","","","-","","-","","-","","-"
"CC1=NN(C(C)=C1C=O)C(C)(C)C","-","-","-","1-(tert-Butyl)-3,5-dimethyl-1H-pyrazole-4-carbaldehyde","56.0 - 61.0","?C","331.5","K","","","","","","-","","-","","-","","-"
"ClC1=CC=CC(Cl)=C1COC1=C(C=O)C=CC=C1","-","-","-","2-[(2,6-Dichlorobenzyl)oxy]benzaldehyde","109.0 - 112.0","?C","383.5","K","","","","","","-","","-","","-","","-"
"OC(=O)C1CCN(CC1)C1=CC=C(C=N1)C(F)(F)F","-","-","-","1-[5-(Trifluoromethyl)-2-pyridyl]piperidine-4-carboxylic acid","162.0 - 164.0","?C","436.0","K","","","","","","-","","-","","-","","-"
"ClC1=C(Cl)C=C(CS(Cl)(=O)=O)C=C1","-","-","-","(3,4-Dichlorophenyl)methanesulfonyl chloride","65.0 - 68.0","?C","339.5","K","","","","","","-","","-","","-","","-"
"CC1=C(CO)SC(=N1)C1=CC=C(C=C1)C(F)(F)F","-","-","-","{4-Methyl-2-[4-(trifluoromethyl)phenyl]-1,3-thiazol-5-yl}methanol","119.0 - 122.0","?C","393.5","K","","","","","","-","","-","","-","","-"
"CC1=C(CBr)SC(=N1)C1=CC=C(C=C1)C(F)(F)F","-","-","-","5-(Bromomethyl)-4-methyl-2-[4-(trifluoromethyl)phenyl]-1,3-thiazole","64.0 - 65.0","?C","337.5","K","","","","","","-","","-","","-","","-"
"OC(=O)C1=CN2N=C(Cl)C=CC2=N1","-","-","-","6-Chloroimidazo[1,2-b]pyridazine-2-carboxylic acid","248.0 - 249.0","?C","521.5","K","","","","","","-","","-","","-","","-"
"CC1=CC2=C(SC(=C2)C(Cl)=O)C=C1","-","-","-","5-Methyl-1-benzothiophene-2-carbonyl chloride","58.0 - 60.0","?C","332.0","K","","","","","","-","","-","","-","","-"
"FC(F)(F)C1=CC=CC(CS(Cl)(=O)=O)=C1","-","-","-","[3-(Trifluoromethyl)phenyl]methanesulfonyl chloride","173.0 - 174.0","?C","446.5","K","","","","","","-","","-","","-","","-"
"CC1=C(SC(=N1)C1=CC=C(Cl)C=C1)C(=O)CBr","-","-","-","2-Bromo-1-[2-(4-chlorophenyl)-4-methyl-1,3-thiazol-5-yl]-1-ethanone","120.0 - 121.0","?C","393.5","K","","","","","","-","","-","","-","","-"
"CC1=CC=C(CS(Cl)(=O)=O)C=C1","-","-","-","(4-Methylphenyl)methanesulfonyl chloride","80.0 - 85.0","?C","355.5","K","","","","","","-","","-","","-","","-"
"CC1=NN(C(C)=C1)C1=CC=C(C=C1)C(O)=O","-","-","-","4-(3,5-Dimethyl-1H-pyrazol-1-yl)benzoic acid","163.0","?C","436.0","K","","","","","","-","","-","","-","","-"
"CC1=NC(N)=CC=C1C#N","-","-","-","6-Amino-2-methylnicotinonitrile","155.0 - 156.0","?C","428.5","K","","","","","","-","","-","","-","","-"
"CC(C)(C)OC(=O)N1C(CC2=CC=CC=C12)C(O)=O","-","-","-","1-(tert-Butoxycarbonyl)-2-indolinecarboxylic acid","121.0 - 122.0","?C","394.5","K","","","","","","-","","-","","-","","-"
"OC(=O)C1=CC2=CC=CC=C2N=C1Cl","-","-","-","2-Chloro-3-quinolinecarboxylic acid","203.0 - 204.0","?C","476.5","K","","","","","","-","","-","","-","","-"
"CCCOC1=CC=C(C=C1)C(N)=NO","-","-","-","N'-Hydroxy-4-propoxybenzenecarboximidamide","105.0 - 106.0","?C","378.5","K","","","","","","-","","-","","-","","-"
"COC1=CC=C(C=C1)C1=CC=C(O1)C(O)=O","-","-","-","5-(4-Methoxyphenyl)-2-furoic acid","176.0 - 178.0","?C","450.0","K","","","","","","-","","-","","-","","-"
"O=C(C1CCCNC1)N1CCCC1","-","-","-","3-Piperidinyl(1-pyrrolidinyl)methanone","57.0 - 64.0","?C","333.5","K","","","","","","-","","-","","-","","-"
"O=C(C1CCNCC1)N1CCCC1","-","-","-","4-Piperidinyl(1-pyrrolidinyl)methanone","45.0 - 47.0","?C","319.0","K","","","","","","-","","-","","-","","-"
"O=CC1=CC=C(C=C1)N1CCCC1=O","-","-","-","4-(2-Oxo-1-pyrrolidinyl)benzaldehyde","121.0 - 122.0","?C","394.5","K","","","","","","-","","-","","-","","-"
"NC(=NO)C1=C(OC(F)(F)F)C=CC=C1","-","-","-","N'-Hydroxy-2-(trifluoromethoxy)benzenecarboximidamide","99.0 - 101.0","?C","373.0","K","","","","","","-","","-","","-","","-"
"COC1=CC=CC=C1OC1=CC=C(C=C1)S(Cl)(=O)=O","-","-","-","4-(2-Methoxyphenoxy)benzenesulfonyl chloride","54.0 - 56.0","?C","328.0","K","","","","","","-","","-","","-","","-"
"O=CC1=C2C=CC=NC2=C2C=CC=CC2=N1","-","-","-","Benzo[h][1,6]naphthyridine-5-carbaldehyde","144.0 - 145.0","?C","417.5","K","","","","","","-","","-","","-","","-"
"O=CC1=NC2=NC=CC=C2C=C1","-","-","-","[1,8]Naphthyridine-2-carbaldehyde","138.0 - 143.0","?C","413.5","K","","","","","","-","","-","","-","","-"
"ClC1=CC=CC=C1OC1=CC=C(C=C1)S(Cl)(=O)=O","-","-","-","4-(2-Chlorophenoxy)benzenesulfonyl chloride","89.0 - 90.0","?C","362.5","K","","","","","","-","","-","","-","","-"
"CC1=C(CCBr)C(C)=NN1","-","-","-","4-(2-Bromoethyl)-3,5-dimethyl-1H-pyrazole","118.0 - 120.0","?C","392.0","K","","","","","","-","","-","","-","","-"
"OC(=O)CN1C=CN=C1","-","-","-","2-(1H-Imidazol-1-yl)acetic acid","258.0 - 260.0","?C","532.0","K","","","","","","-","","-","","-","","-"
"OC(=O)C1=CC=C(C=C1)C1=CC(C=O)=CC=C1","-","-","-","3'-Formyl(1,1'-biphenyl)-4-carboxylic acid","231.0 - 233.0","?C","505.0","K","","","","","","-","","-","","-","","-"
"OC(=O)C1=CC=C(C=C1)C1=CC=C(C=O)C=C1","-","-","-","4'-Formyl(1,1'-biphenyl)-4-carboxylic acid","150.0","?C","423.0","K","","","","","","-","","-","","-","","-"
"OC(=O)C1=CC(=CC=C1)C1=CC=C(C=O)C=C1","-","-","-","4'-Formyl(1,1'-biphenyl)-3-carboxylic acid","166.0","?C","439.0","K","","","","","","-","","-","","-","","-"
"OC(=O)CCCC1=CC=C(Br)C=C1","-","-","-","4-(4-Bromophenyl)butanoic acid","67.0 - 69.0","?C","341.0","K","","","","","","-","","-","","-","","-"
"COC(=O)C1=NC(SC)=NC=C1Br","-","-","-","Methyl 5-bromo-2-(methylsulfanyl)-4-pyrimidinecarboxylate","67.0 - 70.0","?C","341.5","K","","","","","","-","","-","","-","","-"
"NC(=NO)C1=C(F)C=C(F)C(F)=C1","-","-","-","2,4,5-Trifluoro-N'-hydroxybenzenecarboximidamide","91.0 - 92.0","?C","364.5","K","","","","","","-","","-","","-","","-"
"CC1=C(C=C(O1)C1=CC=C(C)C=C1)C(O)=O","-","-","-","2-Methyl-5-(4-methylphenyl)-3-furoic acid","230.0 - 232.0","?C","504.0","K","","","","","","-","","-","","-","","-"
"CC(C)(C)OC(=O)NC1(CCCCC1)C(O)=O","-","-","-","1-[(tert-Butoxycarbonyl)amino]cyclohexanecarboxylic acid","177.0","?C","450.0","K","","","","","","-","","-","","-","","-"
"OC(=O)C1=CC(=NN1)C1=CC=CC=C1","-","-","-","5-Phenyl-1H-pyrazole-3-carboxylic acid","250.0","?C","523.0","K","","","","","","-","","-","","-","","-"
"ClC1=CC=C(C=C1)C1=CC=C(C=C1)S(Cl)(=O)=O","-","-","-","4'-Chloro[1,1'-biphenyl]-4-sulfonyl chloride","109.0 - 110.0","?C","382.5","K","","","","","","-","","-","","-","","-"
"COC(=O)C1=CC=C(N=C1)N1CCCCC1","-","-","-","Methyl 6-piperidinonicotinate","70.0 - 72.0","?C","344.0","K","","","","","","-","","-","","-","","-"
"COC(=O)C1=CC=C(N=C1)N1CCCC1","-","-","-","Methyl 6-(1-pyrrolidinyl)nicotinate","119.0 - 121.0","?C","393.0","K","","","","","","-","","-","","-","","-"
"FC1=CC=C(C=C1)C1=CC=C(C=C1)S(Cl)(=O)=O","-","-","-","4'-Fluoro[1,1'-biphenyl]-4-sulfonyl chloride","82.0 - 84.0","?C","356.0","K","","","","","","-","","-","","-","","-"
"COC1=CC=C(C=C1)C1=CC=C(C=C1)S(Cl)(=O)=O","-","-","-","4'-Methoxy[1,1'-biphenyl]-4-sulfonyl chloride","103.0 - 106.0","?C","377.5","K","","","","","","-","","-","","-","","-"
"ClC1=C(Cl)C=C(C=C1)C1=CC=C(C=C1)S(Cl)(=O)=O","-","-","-","3',4'-Dichloro[1,1'-biphenyl]-4-sulfonyl chloride","105.0 - 106.0","?C","378.5","K","","","","","","-","","-","","-","","-"
"CCOC(=O)C1=C(N)SC=C1C1=CC=C(Cl)C=C1","-","-","-","Ethyl 2-amino-4-(4-chlorophenyl)-3-thiophenecarboxylate","111.0 - 112.0","?C","384.5","K","","","","","","-","","-","","-","","-"
"NC1=NSC(=N1)C1=CC=CC=C1","-","-","-","5-Phenyl-1,2,4-thiadiazol-3-amine","136.0 - 138.0","?C","410.0","K","","","","","","-","","-","","-","","-"
"CC1=NC2=C(C3=C(CCCC3)S2)C(Cl)=N1","-","-","-","4-Chloro-2-methyl-5,6,7,8-tetrahydro[1]benzothieno[2,3-d]pyrimidine","94.0 - 95.0","?C","367.5","K","","","","","","-","","-","","-","","-"
"ClC1=NC=NC2=C1C1=C(CCC1)S2","-","-","-","4-Chloro-6,7-dihydro-5H-cyclopenta[4,5]thieno[2,3-d]pyrimidine","108.0 - 110.0","?C","382.0","K","","","","","","-","","-","","-","","-"
"ClC1=NC=NC2=C1C1=C(CCCCC1)S2","-","-","-","4-Chloro-6,7,8,9-tetrahydro-5H-cyclohepta[4,5]thieno[2,3-d]pyrimidine","64.0 - 65.0","?C","337.5","K","","","","","","-","","-","","-","","-"
"CC1=C(C)C2=C(S1)N=CN=C2Cl","-","-","-","4-Chloro-5,6-dimethylthieno[2,3-d]pyrimidine","112.0 - 113.0","?C","385.5","K","","","","","","-","","-","","-","","-"
"CC1=CC(C(=O)CCl)=C(C)N1C1=CC=C(C)C=C1","-","-","-","2-Chloro-1-[2,5-dimethyl-1-(4-methylphenyl)-1H-pyrrol-3-yl]-1-ethanone","81.0 - 83.0","?C","355.0","K","","","","","","-","","-","","-","","-"
"CC1=CC(C(=O)CCl)=C(C)N1C1=CC=C(Cl)C=C1","-","-","-","2-Chloro-1-[1-(4-chlorophenyl)-2,5-dimethyl-1H-pyrrol-3-yl]-1-ethanone","88.0 - 89.0","?C","361.5","K","","","","","","-","","-","","-","","-"
"CC1=CC(C(=O)CCl)=C(C)N1C1=CC=CC=C1","-","-","-","2-Chloro-1-(2,5-dimethyl-1-phenyl-1H-pyrrol-3-yl)-1-ethanone","93.0 - 94.0","?C","366.5","K","","","","","","-","","-","","-","","-"
"CC1=CC(C(=O)CCl)=C(C)N1C1=CC=C(F)C=C1","-","-","-","2-Chloro-1-[1-(4-fluorophenyl)-2,5-dimethyl-1H-pyrrol-3-yl]-1-ethanone","80.0 - 82.0","?C","354.0","K","","","","","","-","","-","","-","","-"
"CC1=C(C)C2=C(S1)N=C(C)N=C2Cl","-","-","-","4-Chloro-2,5,6-trimethylthieno[2,3-d]pyrimidine","115.0 - 116.0","?C","388.5","K","","","","","","-","","-","","-","","-"
"NC1=NSC(=N1)C1=CC=C(Cl)C=C1","-","-","-","5-(4-Chlorophenyl)-1,2,4-thiadiazol-3-amine","201.0 - 202.0","?C","474.5","K","","","","","","-","","-","","-","","-"
"ClC1=NC=NC2=C1C=C(S2)C1=CC=CC=C1","-","-","-","4-Chloro-6-phenylthieno[2,3-d]pyrimidine","139.0 - 140.0","?C","412.5","K","","","","","","-","","-","","-","","-"
"CC1=CC=C(C=C1)C1=CC=C(C=C1)S(Cl)(=O)=O","-","-","-","4'-Methyl[1,1'-biphenyl]-4-sulfonyl chloride","107.0 - 108.0","?C","380.5","K","","","","","","-","","-","","-","","-"
"NNC1=NC=NC2=C1C1=C(CCCC1)S2","-","-","-","4-Hydrazino-5,6,7,8-tetrahydro[1]benzothieno[2,3-d]pyrimidine","178.0 - 179.0","?C","451.5","K","","","","","","-","","-","","-","","-"
"CC(C)(C)OC(=O)N1CCC(CC1)OC1=CC=CC=C1[N+]([O-])=O","-","-","-","tert-Butyl 4-(2-nitrophenoxy)tetrahydro-1(2H)-pyridinecarboxylate","91.0 - 93.0","?C","365.0","K","","","","","","-","","-","","-","","-"
"ClCC1=CC2=CC=CC=C2N=C1Cl","-","-","-","2-Chloro-3-(chloromethyl)quinoline","114.0 - 115.0","?C","387.5","K","","","","","","-","","-","","-","","-"
"CC(C)(C)OC(=O)N1CCC2(CC1)NC(=O)C1=CC(Br)=CC=C1O2","-","-","-","tert-Butyl 6-bromo-4-oxo-3,4-dihydro-1'H-spiro[1,3-benzoxazine-2,4'-piperidine]-1'-carboxylate","226.0 - 227.0","?C","499.5","K","","","","","","-","","-","","-","","-"
"OC(=O)C1=CSC(=N1)C1=CC=C(C=C1)C(F)(F)F","-","-","-","2-[4-(Trifluoromethyl)phenyl]-1,3-thiazole-4-carboxylic acid","186.0 - 188.0","?C","460.0","K","","","","","","-","","-","","-","","-"
"CC(C)(C)OC(=O)N1C2CCC1CC(=O)C2","-","-","-","tert-Butyl 3-oxo-8-azabicyclo[3.2.1]octane-8-carboxylate","58.0 - 59.0","?C","331.5","K","","","","","","-","","-","","-","","-"
"CC(C)(C)OC(=O)N1CCC(CC1)OC1=CC=CC=C1N","-","-","-","tert-Butyl 4-(2-aminophenoxy)tetrahydro-1(2H)-pyridinecarboxylate","71.0 - 78.0","?C","347.5","K","","","","","","-","","-","","-","","-"
"CC1=CC2=C(SC(Br)=C2)C=C1","-","-","-","2-Bromo-5-methyl-1-benzothiophene","92.0 - 93.0","?C","365.5","K","","","","","","-","","-","","-","","-"
"CC1=CC2=C(SC(C=O)=C2)C=C1","-","-","-","5-Methyl-1-benzothiophene-2-carbaldehyde","98.0 - 99.0","?C","371.5","K","","","","","","-","","-","","-","","-"
"CC(C)(C)OC(=O)N1CCC(CC1)OC1=CC=C(C=C1)[N+]([O-])=O","-","-","-","tert-Butyl 4-(4-nitrophenoxy)tetrahydro-1(2H)-pyridinecarboxylate","99.0 - 101.0","?C","373.0","K","","","","","","-","","-","","-","","-"
"NC1=CC=C(Br)N=N1","-","-","-","6-Bromo-3-pyridazinamine","194.0","?C","467.0","K","","","","","","-","","-","","-","","-"
"CC(C)(C)OC(=O)N1CCCC(C1)OC1=CC=CC=C1[N+]([O-])=O","-","-","-","tert-Butyl 3-(2-nitrophenoxy)tetrahydro-1(2H)-pyridinecarboxylate","74.0 - 75.0","?C","347.5","K","","","","","","-","","-","","-","","-"
"NC1=CC2=C(OC3=C2CCCC3)C=C1","-","-","-","6,7,8,9-Tetrahydrodibenzo[b,d]furan-2-amine","73.0 - 75.0","?C","347.0","K","","","","","","-","","-","","-","","-"
"CC(=O)NC1=CC=C(C=C1)S(=O)(=O)NCCO","-","-","-","N-(4-{[(2-Hydroxyethyl)amino]sulfonyl}phenyl)acetamide","126.0 - 127.0","?C","399.5","K","","","","","","-","","-","","-","","-"
"NC1=CC=C(C=C1)S(=O)(=O)NCCO","-","-","-","4-Amino-N-(2-hydroxyethyl)benzenesulfonamide","97.0 - 99.0","?C","371.0","K","","","","","","-","","-","","-","","-"
"CC1=CC=C(C=C1)C1=NC(=CS1)C(O)=O","-","-","-","2-(4-Methylphenyl)-1,3-thiazole-4-carboxylic acid","170.0","?C","443.0","K","","","","","","-","","-","","-","","-"
"CC(C)N1C2=C(C=C(C=C2)C(Cl)=O)N=C1C(F)(F)F","-","-","-","1-Isopropyl-2-(trifluoromethyl)-1H-benzimidazole-5-carbonyl chloride","102.0","?C","375.0","K","","","","","","-","","-","","-","","-"
"OC(=O)C1=CC(Br)=CC2=C1OCC2","-","-","-","5-Bromo-2,3-dihydrobenzo[b]furan-7-carboxylic acid","230.0","?C","503.0","K","","","","","","-","","-","","-","","-"
"ClC(=O)C1=CC(Br)=CC2=C1OCC2","-","-","-","5-Bromo-2,3-dihydrobenzo[b]furan-7-carbonyl chloride","126.0 - 127.0","?C","399.5","K","","","","","","-","","-","","-","","-"
"ClS(=O)(=O)C1=CC(Br)=CC2=C1OCC2","-","-","-","5-Bromo-2,3-dihydrobenzo[b]furan-7-sulfonyl chloride","121.0 - 122.0","?C","394.5","K","","","","","","-","","-","","-","","-"
"BrCC(=O)C1=C2OCCC2=CC(Br)=C1","-","-","-","2-Bromo-1-(5-bromo-2,3-dihydro-1-benzofuran-7-yl)ethanone","132.0 - 134.0","?C","406.0","K","","","","","","-","","-","","-","","-"
"CC1=CC2=C(SC(CO)=C2)C=C1","-","-","-","5-Methylbenzo[b]thiophene-2-methanol","93.0 - 94.0","?C","366.5","K","","","","","","-","","-","","-","","-"
"COC1=CC=C2N=C(Cl)C(CO)=CC2=C1","-","-","-","2-Chloro-6-methoxyquinoline-3-methanol","133.0","?C","406.0","K","","","","","","-","","-","","-","","-"
"ClC1=CC(=O)NC=N1","-","-","-","6-Chloro-4-pyrimidinol","194.0 - 195.0","?C","467.5","K","","","","","","-","","-","","-","","-"
"BrC1=CC(C=O)=C2OCCC2=C1","-","-","-","5-Bromo-2,3-dihydrobenzo[b]furan-7-carbaldehyde","94.0 - 95.0","?C","367.5","K","","","","","","-","","-","","-","","-"
"COC(=O)C1=CC=CC(=N1)C(=O)OC","-","-","-","Dimethyl pyridine-2,6-dicarboxylate","123.0","?C","396.0","K","","","","","","-","","-","","-","","-"
"CSC1=NC=C(Br)C(=N1)C(O)=O","-","-","-","5-Bromo-2-(methylthio)pyrimidine-4-carboxylic acid","156.0 - 157.0","?C","429.5","K","","","","","","-","","-","","-","","-"
"NC1=NOC=C1C#N","-","-","-","3-Aminoisoxazole-4-carbonitrile","140.0","?C","413.0","K","","","","","","-","","-","","-","","-"
"CC1=C(SC(=N1)C1=CC=C2OCCC2=C1)C(O)=O","-","-","-","2-(2,3-Dihydro-1-benzofuran-5-yl)-4-methyl-1,3-thiazole-5-carboxylic acid","221.0 - 225.0","?C","496.0","K","","","","","","-","","-","","-","","-"
"ClC(=O)C1=CSC(=N1)C1=C(Cl)C(Cl)=CC=C1","-","-","-","2-(2,3-Dichlorophenyl)-1,3-thiazole-4-carbonyl chloride","108.0 - 111.0","?C","382.5","K","","","","","","-","","-","","-","","-"
"CCOC(=O)C1=CC(C)=NC2=CC=C(Br)C=C12","-","-","-","Ethyl 6-bromo-2-methylquinoline-4-carboxylate","110.0 - 111.0","?C","383.5","K","","","","","","-","","-","","-","","-"
"CC1CC(=O)NC2=C(N1)C=CC=C2","-","-","-","4-Methyl-1,3,4,5-tetrahydro-2H-1,5-benzodiazepin-2-one","180.0 - 183.0","?C","454.5","K","","","","","","-","","-","","-","","-"
"CC1=CN=C(N)C(C)=N1","-","-","-","3,5-Dimethylpyrazin-2-amine","96.0","?C","369.0","K","","","","","","-","","-","","-","","-"
"OC(=O)C1=CC(=CC=C1)N1C=CN=C1","-","-","-","3-(1H-Imidazol-1-yl)benzoic acid","194.0 - 199.0","?C","469.5","K","","","","","","-","","-","","-","","-"
"OC(=O)C1=CC(=CC=C1)N1C=CC=N1","-","-","-","3-(1H-Pyrazol-1-yl)benzoic acid","154.0 - 156.0","?C","428.0","K","","","","","","-","","-","","-","","-"
"NC(=S)C1=CC(I)=CC=C1","-","-","-","3-Iodothiobenzamide","120.0 - 124.0","?C","395.0","K","","","","","","-","","-","","-","","-"
"CC1=CC(C=O)=NO1","-","-","-","5-Methyl-3-isoxazolecarbaldehyde","31.0 - 33.0","?C","305.0","K","","","","","","-","","-","","-","","-"
"NC(=N)NC(CC1=CC=CC=C1)C(O)=O","-","-","-","(S)-2-Guanidino-3-phenylpropionic acid","250.0 - 253.0","?C","524.5","K","","","","","","-","","-","","-","","-"