"SMILES","CASRN","EXTERNALID","N","NAME","Melting Point","UNIT {Melting Point}","Melting Point {measured, converted}","UNIT {Melting Point}","Dataset","comment (property)","comment (chemical)","measurement method","Pressure","UNIT {Pressure}","Som set numeric condition","UNIT {Som set numeric condition}","Resp set numeric condition","UNIT {Resp set numeric condition}","Quality code","UNIT {Quality code}"
"CC1=C(CC(O)=O)SC2=C1C=C(Cl)C=C2","-","-","-","2-(5-Chloro-3-methylbenzo[b]thiophen-2-yl)acetic acid","177.0 - 178.0","?C","450.5","K","","","","","","-","","-","","-","","-"
"CC1=C(SC2=C1C=C(Cl)C=C2)C(=O)CCl","-","-","-","2-Chloro-1-(5-chloro-3-methylbenzo[b]thiophen-2-yl)ethan-1-one","158.0 - 160.0","?C","432.0","K","","","","","","-","","-","","-","","-"
"CC1=C(SC2=C1C=CC=C2)C=O","-","-","-","3-Methylbenzo[b]thiophene-2-carbaldehyde","89.0 - 90.0","?C","362.5","K","","","","","","-","","-","","-","","-"
"COC1=C(C#N)C(OCC2=CC=CC=C2)=CC=C1","-","-","-","2-(Benzyloxy)-6-methoxybenzonitrile","70.0 - 72.0","?C","344.0","K","","","","","","-","","-","","-","","-"
"COC1=C(C#N)C(OCC2=CC=CC=C2Cl)=CC=C1","-","-","-","2-[(2-Chlorobenzyl)oxy]-6-methoxybenzonitrile","152.0 - 154.0","?C","426.0","K","","","","","","-","","-","","-","","-"
"CCOC1=C(C#N)C(OCC(F)(F)F)=CC=C1","-","-","-","2-Ethoxy-6-(2,2,2-trifluoroethoxy)benzonitrile","78.0 - 80.0","?C","352.0","K","","","","","","-","","-","","-","","-"
"CC1=CC=C(COC2=C(C#N)C(F)=CC=C2)C=C1","-","-","-","2-Fluoro-6-[(4-methylbenzyl)oxy]benzonitrile","81.0 - 83.0","?C","355.0","K","","","","","","-","","-","","-","","-"
"FC1=CC=CC(OCC2=CC=C(Cl)C=C2)=C1C#N","-","-","-","2-[(4-Chlorobenzyl)oxy]-6-fluorobenzonitrile","146.0 - 148.0","?C","420.0","K","","","","","","-","","-","","-","","-"
"CC1=CC=C(SC2=CC=C(C=O)C=C2[N+]([O-])=O)C=C1","-","-","-","4-[(4-Methylphenyl)thio]-3-nitrobenzaldehyde","138.0 - 141.0","?C","412.5","K","","","","","","-","","-","","-","","-"
"NC1=C(C#N)C(C2=CC=CO2)=C(O1)C1=CC=CO1","-","-","-","2-Amino-3-cyano-4,5-di(fur-2-yl)furan","183.0 - 185.0","?C","457.0","K","","","","","","-","","-","","-","","-"
"OCC1=CC=CC2=C1C(Br)=CC=C2","-","-","-","(8-Bromo-1-naphthyl)methanol","89.0 - 90.0","?C","362.5","K","","","","","","-","","-","","-","","-"
"BrCCOC1=CC=CC2=C1OCCO2","-","-","-","5-(2-Bromoethoxy)-2,3-dihydro-1,4-benzodioxine","85.0 - 86.0","?C","358.5","K","","","","","","-","","-","","-","","-"
"CC(=O)NC1=CC2=C(C=C1)C(=O)CCC2","-","-","-","N1-(5-Oxo-5,6,7,8-tetrahydronaphthalen-2-yl)acetamide","127.0 - 129.0","?C","401.0","K","","","","","","-","","-","","-","","-"
"NC1=CC2=C(C=C1)C(=O)CCC2","-","-","-","6-Amino-1,2,3,4-tetrahydronaphthalen-1-one","130.0 - 131.0","?C","403.5","K","","","","","","-","","-","","-","","-"
"NC1=CC2=C(C=C1)C(=O)CC2","-","-","-","5-Aminoindan-1-one","184.0 - 186.0","?C","458.0","K","","","","","","-","","-","","-","","-"
"CC(C)(C)OC(=O)CCC(Cl)(Cl)Cl","-","-","-","tert-Butyl 4,4,4-trichlorobutanoate","300.0","?C","573.0","K","","","","","","-","","-","","-","","-"
"CC(C)(O)C12CC3CC(CC(C3)C1)C2","-","-","-","2-(1-Adamantyl)propan-2-ol","75.0","?C","348.0","K","","","","","","-","","-","","-","","-"
"OC(=O)C12CC3CC(CC(Br)(C3)C1)C2","-","-","-","3-Bromoadamantane-1-carboxylic acid","147.0 - 148.0","?C","420.5","K","","","","","","-","","-","","-","","-"
"OC(=O)C12CC3CC(CC(Cl)(C3)C1)C2","-","-","-","3-Chloroadamantane-1-carboxylic acid","136.0 - 140.0","?C","411.0","K","","","","","","-","","-","","-","","-"
"CCOC(=O)C12CCC(CC1=O)(C(=O)OCC)C(=O)C2","-","-","-","Diethyl 2,5-dioxobicyclo[2.2.2]octane-1,4-dicarboxylate","111.0 - 113.0","?C","385.0","K","","","","","","-","","-","","-","","-"
"CC(=O)CCC1=CNC2=CC=CC=C12","-","-","-","4-(1H-Indol-3-yl)butan-2-one","94.0 - 96.0","?C","368.0","K","","","","","","-","","-","","-","","-"
"COC1=CC=C2N=C(NN)N=NC2=C1","-","-","-","3-Hydrazino-7-methoxy-1,2,4-benzotriazine","238.0 - 240.0","?C","512.0","K","","","","","","-","","-","","-","","-"
"CCSC(SCC)=C(C#N)C1=NC=CC=C1","-","-","-","3,3-Di(ethylthio)-2-(2-pyridyl)acrylonitrile","160.0 - 162.0","?C","434.0","K","","","","","","-","","-","","-","","-"
"[O-][N+](=O)C=CC1=CC=CC=C1C(F)(F)F","-","-","-","1-(2-Nitrovinyl)-2-(trifluoromethyl)benzene","60.0 - 62.0","?C","334.0","K","","","","","","-","","-","","-","","-"
"ClC(=O)CC1=CC2=CC=CC=C2C=C1","-","-","-","2-(2-Naphthyl)acetyl chloride","60.0 - 61.0","?C","333.5","K","","","","","","-","","-","","-","","-"
"OC(=O)C1=C2C=CC=CC2=NO1","-","-","-","2,1-Benzisoxazole-3-carboxylic acid","185.0","?C","458.0","K","","","","","","-","","-","","-","","-"
"CCOC(=O)C1=CC(I)=C(N)C(I)=C1","-","-","-","Ethyl 4-Amino-3,5-diiodobenzoate","145.0 - 146.0","?C","418.5","K","","","","","","-","","-","","-","","-"
"ClC(=O)C1=CC(Br)=CN=C1","-","-","-","5-Bromopyridine-3-carbonyl chloride","84.0 - 86.0","?C","358.0","K","","","","","","-","","-","","-","","-"
"NNC(=O)C1=CC(Br)=CN=C1","-","-","-","5-Bromopyridine-3-carbohydrazide","199.0 - 202.0","?C","473.5","K","","","","","","-","","-","","-","","-"
"CCOC(=O)C1=CC=C(C=C1)N1C(=O)CCC1=O","-","-","-","Ethyl 4-(2,5-dioxotetrahydro-1H-pyrrol-1-yl)benzoate","158.0 - 160.0","?C","432.0","K","","","","","","-","","-","","-","","-"
"COC(=O)C1=CC(N)=C(N)C=C1","-","-","-","Methyl 3,4-diaminobenzoate","108.0 - 109.0","?C","381.5","K","","","","","","-","","-","","-","","-"
"COC(=O)C1=CC=C(NC(C)=O)C(NC(C)=O)=C1","-","-","-","Methyl 3,4-di(acetylamino)benzoate","225.0","?C","498.0","K","","","","","","-","","-","","-","","-"
"COC(=O)C1=CC2=C(C=C1)N=CC=N2","-","-","-","Methyl quinoxaline-6-carboxylate","99.0 - 100.0","?C","372.5","K","","","","","","-","","-","","-","","-"
"FC1=CC2=NSN=C2C=C1Cl","-","-","-","5-Chloro-6-fluoro-2,1,3-benzothiadiazole","78.0","?C","351.0","K","","","","","","-","","-","","-","","-"
"O=C1C(=O)C(NC2=CC=CC=C2)=C1NC1=CC=CC=C1","-","-","-","3,4-Dianilinocyclobut-3-ene-1,2-dione","270.0","?C","543.0","K","","","","","","-","","-","","-","","-"
"CN(N)C1=C(N(C)N)C(=O)C1=O","-","-","-","3,4-Di(1-methylhydrazino)cyclobut-3-ene-1,2-dione","201.0 - 202.0","?C","474.5","K","","","","","","-","","-","","-","","-"
"CCOC1=C(NC2=CC=C(C=C2)C(O)=O)C(=O)C1=O","-","-","-","4-[(2-Ethoxy-3,4-dioxocyclobut-1-enyl)amino]benzoic acid","300.0","?C","573.0","K","","","","","","-","","-","","-","","-"
"CCOC1=C(NCC2=CC=CC=C2)C(=O)C1=O","-","-","-","3-(Benzylamino)-4-ethoxycyclobut-3-ene-1,2-dione","68.0 - 72.0","?C","343.0","K","","","","","","-","","-","","-","","-"
"CC(C)(OC1=CC=C(Cl)C=C1)C(N)=O","-","-","-","2-(4-Chlorophenoxy)-2-methylpropanamide","126.0 - 129.0","?C","400.5","K","","","","","","-","","-","","-","","-"
"O=C1C(=O)C(N2CCOCC2)=C1N1CCCC1","-","-","-","3-Morpholino-4-tetrahydro-1H-pyrrol-1-ylcyclobut-3-ene-1,2-dione","251.0 - 254.0","?C","525.5","K","","","","","","-","","-","","-","","-"
"CC1=CC(O)=CC(C)=C1C#N","-","-","-","4-Hydroxy-2,6-dimethylbenzonitrile","176.0 - 177.0","?C","449.5","K","","","","","","-","","-","","-","","-"
"CC1=CC(I)=CC(C)=C1O","-","-","-","4-Iodo-2,6-dimethylphenol","99.0 - 102.0","?C","373.5","K","","","","","","-","","-","","-","","-"
"CC1=CC(Br)=CC=C1S(Cl)(=O)=O","-","-","-","4-Bromo-2-methylbenzene-1-sulfonyl chloride","65.0 - 67.0","?C","339.0","K","","","","","","-","","-","","-","","-"
"CC1=CC2=NSN=C2C=C1Cl","-","-","-","5-Chloro-6-methyl-2,1,3-benzothiadiazole","85.0 - 86.0","?C","358.5","K","","","","","","-","","-","","-","","-"
"NC1=NC(=NC(N)=N1)C1=CC=C(Cl)C=C1","-","-","-","6-(4-chlorophenyl)-1,3,5-triazine-2,4-diamine","250.0 - 152.0","?C","474.0","K","","","","","","-","","-","","-","","-"
"OC(=O)COC1=CC=C(OC(F)(F)F)C=C1","-","-","-","2-[4-(Trifluoromethoxy)phenoxy]acetic acid","84.0 - 86.0","?C","358.0","K","","","","","","-","","-","","-","","-"
"CC(OC1=CC=C(OC(F)(F)F)C=C1)C(O)=O","-","-","-","2-[4-(Trifluoromethoxy)phenoxy]propanoic acid","76.0 - 78.0","?C","350.0","K","","","","","","-","","-","","-","","-"
"NNC(=O)COC1=CC=C(OC(F)(F)F)C=C1","-","-","-","2-[4-(Trifluoromethoxy)phenoxy]ethanohydrazide","130.0 - 133.0","?C","404.5","K","","","","","","-","","-","","-","","-"
"CC(=O)NC1=CC=C(Br)C(=C1)C(F)(F)F","-","-","-","N-[4-Bromo-3-(trifluoromethyl)phenyl]acet amide","116.0 - 119.0","?C","390.5","K","","","","","","-","","-","","-","","-"
"OC(=O)C1=CC2=C(OC1)C=CC(Cl)=C2","-","-","-","6-Chloro-2H-chromene-3-carboxylic acid","245.0","?C","518.0","K","","","","","","-","","-","","-","","-"
"ClC(=O)C1=CC2=CC(Cl)=CC=C2OC1","-","-","-","6-Chloro-2H-chromene-3-carbonyl chloride","92.0 - 94.0","?C","366.0","K","","","","","","-","","-","","-","","-"
"CC1=NC(=NC(Cl)=C1Cl)C1=NC=CC=C1","-","-","-","4,5-Dichloro-6-methyl-2-(2-pyridyl)pyrimidine","127.0 - 129.0","?C","401.0","K","","","","","","-","","-","","-","","-"
"FC(F)(F)C1=C(C#N)C(=O)NC(=C1)C1=CC=CS1","-","-","-","2-Hydroxy-6-(2-thienyl)-4-(trifluoromethyl)nicotinonitrile","293.0 - 295.0","?C","567.0","K","","","","","","-","","-","","-","","-"
"CC1=C(CO)C(=NO1)C1=C(Cl)C=CC=C1Cl","-","-","-","[3-(2,6-Dichlorophenyl)-5-methylisoxazol-4-yl]methanol","107.0 - 109.0","?C","381.0","K","","","","","","-","","-","","-","","-"
"CC(C)(C)C1=CC=C(C=C1)C1=NOC(CCl)=N1","-","-","-","3-[4-(tert-Butyl)phenyl]-5-(chloromethyl)-1,2,4-oxadiazole","46.0 - 48.0","?C","320.0","K","","","","","","-","","-","","-","","-"
"CC1=C(C(N)=O)C(=NO1)C1=C(F)C=CC=C1Cl","-","-","-","3-(2-Chloro-6-fluorophenyl)-5-methylisoxazole-4-carboxamide","127.0 - 129.0","?C","401.0","K","","","","","","-","","-","","-","","-"
"CCOC(=O)C1=C(C#N)C(=S)NC(C)=C1","-","-","-","Ethyl 3-cyano-2-mercapto-6-methylisonicotinate","214.0","?C","487.0","K","","","","","","-","","-","","-","","-"
"CC1=C(C#N)C(=NO1)C1=C(F)C=CC=C1Cl","-","-","-","3-(2-Chloro-6-fluorophenyl)-5-methylisoxazole-4-carbonitrile","78.0 - 81.0","?C","352.5","K","","","","","","-","","-","","-","","-"
"CC1=C(C(N)=S)C(=NO1)C1=C(Cl)C=CC=C1Cl","-","-","-","3-(2,6-Dichlorophenyl)-5-methylisoxazole-4-carbothioamide","173.0 - 176.0","?C","447.5","K","","","","","","-","","-","","-","","-"
"CC(C)(C)C1=CC=C(C=C1)C(N)=S","-","-","-","4-tert-Butylthiobenzamide","145.0 - 148.0","?C","419.5","K","","","","","","-","","-","","-","","-"
"CC1=C(Cl)C(C)=C(C#N)C(Cl)=N1","-","-","-","2,5-Dichloro-4,6-dimethylnicotinonitrile","82.0 - 83.0","?C","355.5","K","","","","","","-","","-","","-","","-"
"CCOC(=O)C1=C(C#N)C(Cl)=NC(C)=C1","-","-","-","Ethyl 2-chloro-3-cyano-6-methylisonicotinate","58.0 - 60.0","?C","332.0","K","","","","","","-","","-","","-","","-"
"OC1=NOC2=CC(Cl)=CC=C12","-","-","-","6-Chlorobenzo[d]isoxazol-3-ol","215.0 - 217.0","?C","489.0","K","","","","","","-","","-","","-","","-"
"NC(=S)C1=CC(Cl)=NC(Cl)=C1","-","-","-","2,6-Dichloropyridine-4-carbothioamide","145.0 - 150.0","?C","420.5","K","","","","","","-","","-","","-","","-"
"NNC1=CC(=CC=C1Cl)C(F)(F)F","-","-","-","1-[2-Chloro-5-(trifluoromethyl)phenyl]hydrazine","64.0 - 68.0","?C","339.0","K","","","","","","-","","-","","-","","-"
"NNC1=CC=C(I)C=C1","-","-","-","1-(4-Iodophenyl)hydrazine","101.0 - 102.0","?C","374.5","K","","","","","","-","","-","","-","","-"
"CC1=CC(=C(C#N)C(=S)N1)C(F)(F)F","-","-","-","2-Mercapto-6-methyl-4-(trifluoromethyl)nicotinonitrile","200.0","?C","473.0","K","","","","","","-","","-","","-","","-"
"CC(C)(C)C1=CC=C(N)C(N)=C1","-","-","-","4-(tert-Butyl)benzene-1,2-diamine","98.0 - 100.0","?C","372.0","K","","","","","","-","","-","","-","","-"
"CC1=NC=CC(O)=C1OCC1=CC=C(Cl)C=C1Cl","-","-","-","3-[(2,4-Dichlorobenzyl)oxy]-2-methylpyridin-4-ol","218.0 - 222.0","?C","493.0","K","","","","","","-","","-","","-","","-"
"CC1=NC=CC(O)=C1OCC1=CC=C(Cl)C=C1","-","-","-","3-[(4-Chlorobenzyl)oxy]-2-methylpyridin-4-ol","195.0 - 199.0","?C","470.0","K","","","","","","-","","-","","-","","-"
"CCOC(=O)CN1C=C(Cl)C(=O)C(Cl)=C1","-","-","-","Ethyl 2-(3,5-dichloro-4-oxo-1,4-dihydropyridin-1-yl)acetate","209.0 - 211.0","?C","483.0","K","","","","","","-","","-","","-","","-"
"NC(=NO)C1=CC=CC=C1","-","-","-","N'-Hydroxybenzenecarboximidamide","75.0 - 77.0","?C","349.0","K","","","","","","-","","-","","-","","-"
"OC1=NSC(NC2=CC=CC=C2Cl)=C1C#N","-","-","-","5-(2-Chloroanilino)-3-hydroxyisothiazole-4-carbonitrile","100.0","?C","373.0","K","","","","","","-","","-","","-","","-"
"NC(=S)C1=CC=C(C=C1)C1SCCS1","-","-","-","4-(1,3-Dithiolan-2-yl)benzene-1-carbothioamide","174.0","?C","447.0","K","","","","","","-","","-","","-","","-"
"CSC1=NC(N)=NC(=N1)C1=NC=CC=C1","-","-","-","4-(Methylthio)-6-(2-pyridyl)-1,3,5-triazin-2-amine","193.0 - 196.0","?C","467.5","K","","","","","","-","","-","","-","","-"
"CSC1=NC(N)=NC(=N1)C(C)C","-","-","-","4-Isopropyl-6-(methylthio)-1,3,5-triazin-2-amine","127.0 - 130.0","?C","401.5","K","","","","","","-","","-","","-","","-"
"CSC1=NC(N)=NC(=N1)C(C)(C)C","-","-","-","4-(tert-Butyl)-6-(methylthio)-1,3,5-triazin-2-amine","102.0 - 104.0","?C","376.0","K","","","","","","-","","-","","-","","-"
"CCSC1=NC(=NC(N)=N1)C(C)C","-","-","-","4-(Ethylthio)-6-isopropyl-1,3,5-triazin-2-amine","115.0 - 117.0","?C","389.0","K","","","","","","-","","-","","-","","-"
"CSC1=NC(N)=NC(=N1)C1=CC=CS1","-","-","-","4-(Methylthio)-6-(2-thienyl)-1,3,5-triazin-2-amine","176.0 - 177.0","?C","449.5","K","","","","","","-","","-","","-","","-"
"CC1=NC(O)=NC(N)=N1","-","-","-","4-Amino-6-methyl-1,3,5-triazin-2-ol","300.0","?C","573.0","K","","","","","","-","","-","","-","","-"
"CSC1=NC(N)=NC(=N1)C1=CN=CC=C1","-","-","-","4-(Methylthio)-6-(3-pyridyl)-1,3,5-triazin-2-amine","243.0 - 254.0","?C","521.5","K","","","","","","-","","-","","-","","-"
"CSC1=NC(N)=NC(=N1)C1=CC=NC=C1","-","-","-","4-(Methylthio)-6-(4-pyridyl)-1,3,5-triazin-2-amine","234.0 - 237.0","?C","508.5","K","","","","","","-","","-","","-","","-"
"CC(C)(C)C1=NC(N)=NC(O)=N1","-","-","-","4-Amino-6-(tert-butyl)-1,3,5-triazin-2-ol","275.0","?C","548.0","K","","","","","","-","","-","","-","","-"
"NNC1=NC(N)=NC(=N1)C1=NC=CC=C1","-","-","-","4-Hydrazino-6-(2-pyridyl)-1,3,5-triazin-2-amine","287.0 - 289.0","?C","561.0","K","","","","","","-","","-","","-","","-"
"CSC1=NC(N)=NC(=N1)C12CC3CC(CC(C3)C1)C2","-","-","-","4-(1-Adamantyl)-6-(methylthio)-1,3,5-trazin-2-amine","208.0 - 210.0","?C","482.0","K","","","","","","-","","-","","-","","-"
"NC1=NC(=NC(O)=N1)C12CC3CC(CC(C3)C1)C2","-","-","-","4-(1-Adamantyl)-6-amino-1,3,5-trazin-2-ol","340.0","?C","613.0","K","","","","","","-","","-","","-","","-"
"NNC1=NC(=NC(N)=N1)C12CC3CC(CC(C3)C1)C2","-","-","-","4-(1-Adamantyl)-6-hydrazino-1,3,5-trazin-2-amine","265.0 - 267.0","?C","539.0","K","","","","","","-","","-","","-","","-"
"CC1=CC=C(C=C1)C1=NN=C(CCl)O1","-","-","-","2-(Chloromethyl)-5-(4-methylphenyl)-1,3,4-oxadiazole","121.0 - 123.0","?C","395.0","K","","","","","","-","","-","","-","","-"
"CC(C)(C)C(=O)OCC(N)=S","-","-","-","2-Amino-2-thioxoethyl pivalate","84.0 - 85.0","?C","357.5","K","","","","","","-","","-","","-","","-"
"NNC(=O)C1=CC=CN1","-","-","-","1H-Pyrrole-2-carbohydrazide","232.0 - 235.0","?C","506.5","K","","","","","","-","","-","","-","","-"
"COC(=O)C1=CN=C(C=C1)C(=O)OC","-","-","-","Dimethyl pyridine-2,5-dicarboxylate","163.0 - 164.0","?C","436.5","K","","","","","","-","","-","","-","","-"
"COC(=O)C1=CN=C(C=C1)C(O)=O","-","-","-","5-(Methoxycarbonyl)pyridine-2-carboxylic acid","187.0 - 190.0","?C","461.5","K","","","","","","-","","-","","-","","-"
"NC(=S)C1=CC=C(C=C1)C(F)(F)F","-","-","-","4-(Trifluoromethyl)thiobenzamide","136.0 - 137.0","?C","409.5","K","","","","","","-","","-","","-","","-"
"FC(F)(F)C1=CC=C(C=C1)C1=NC(CCl)=CS1","-","-","-","4-(Chloromethyl)-2-[4-(trifluoromethyl)phenyl]-1,3-thiazole","80.0 - 85.0","?C","355.5","K","","","","","","-","","-","","-","","-"
"COC1=NC(Cl)=CC(=C1)C(O)=O","-","-","-","2-Chloro-6-methoxyisonicotinic acid","214.0 - 216.0","?C","488.0","K","","","","","","-","","-","","-","","-"
"CC1=NC(Cl)=CC(=C1)C(O)=O","-","-","-","2-Chloro-6-methylisonicotinic acid","193.0","?C","466.0","K","","","","","","-","","-","","-","","-"
"FC(F)(F)C1=C(C#N)C(Cl)=NC(Cl)=C1","-","-","-","2,6-Dichloro-4-(trifluoromethyl)nicotinonitrile","38.0 - 40.0","?C","312.0","K","","","","","","-","","-","","-","","-"
"NC1=C(C=CN=C1)C(F)(F)F","-","-","-","4-(Trifluoromethyl)pyridin-3-amine","55.0 - 56.0","?C","328.5","K","","","","","","-","","-","","-","","-"
"CC(O)C1=C(Br)C=CC=C1","-","-","-","(S)-2-Bromo-alpha-methylbenzyl alcohol","56.0 - 58.0","?C","330.0","K","","","","","","-","","-","","-","","-"
"CN1C=NC(N)=C2N=CN=C12","-","-","-","3-Methyladenine","300.0","?C","573.0","K","","","","","","-","","-","","-","","-"
"COC1=C2C=CC=CC2=C(C=C1)C(N)=NO","-","-","-","N'-Hydroxy-4-methoxy-1-naphthalenecarboximidamide","175.0 - 176.0","?C","448.5","K","","","","","","-","","-","","-","","-"
"CC1=CC=CN=C1C(N)=NO","-","-","-","N'-Hydroxy-3-methyl-2-pyridinecarboximidamide","94.0 - 95.0","?C","367.5","K","","","","","","-","","-","","-","","-"
"OCC1=CN=C(C=C1)N1CCCC1","-","-","-","[6-(1-Pyrrolidinyl)-3-pyridinyl]methanol","61.0 - 62.0","?C","334.5","K","","","","","","-","","-","","-","","-"
"OCC1=CN=C(C=C1)N1CCCCC1","-","-","-","(Piperidino-3-pyridinyl)methanol","70.0 - 71.0","?C","343.5","K","","","","","","-","","-","","-","","-"
"CC(C)(C)OC(=O)N1CCNCC1","-","-","-","tert-Butyl 1-piperazinecarboxylate","47.0 - 49.0","?C","321.0","K","","","","","","-","","-","","-","","-"
"OC(=O)C1=CC=C(C=C1)N1CCCC1","-","-","-","4-(1-Pyrrolidinyl)benzoic acid","230.0","?C","503.0","K","","","","","","-","","-","","-","","-"
"COC(=O)C1=CC2=C(N1)C=CC=C2","-","-","-","Methyl 1H-indole-2-carboxylate","151.0 - 153.0","?C","425.0","K","","","","","","-","","-","","-","","-"
"COC(=O)C1=CC2=C(C=CC=C2)N1C(=O)OC(C)(C)C","-","-","-","1-(tert-Butyl) 2-methyl 1H-indole-1,2-dicarboxylate","66.0 - 67.0","?C","339.5","K","","","","","","-","","-","","-","","-"
"NC1=CC(=CC=C1)C1OCCCO1","-","-","-","3-(1,3-Dioxan-2-yl)aniline","75.0 - 76.0","?C","348.5","K","","","","","","-","","-","","-","","-"
"NC1=CC(=CC=C1)S(=O)(=O)N1CCCCC1","-","-","-","3-(Piperidinosulfonyl)aniline","117.0 - 118.0","?C","390.5","K","","","","","","-","","-","","-","","-"
"NC1=CC(=CC=C1)S(=O)(=O)N1CCOCC1","-","-","-","3-(Morpholinosulfonyl)aniline","132.0 - 135.0","?C","406.5","K","","","","","","-","","-","","-","","-"
"ClCC1(CCl)CCC(CCl)(CCl)C1=O","-","-","","2,2,5,5-Tetrakis(chloromethyl)cyclopentanone","72.0","?C","345.0","K","","","","","","-","","-","","-","","-"
"FC1=CC(CBr)=CC(Cl)=C1","-","-","-","3-Chloro-5-fluorobenzyl bromide","25.0 - 30.0","?C","300.5","K","","","","","","-","","-","","-","","-"
"FC(F)(F)S(=O)(=O)N(C1=CC=CC=C1)S(=O)(=O)C(F)(F)F","-","-","-","N-Phenylbis(trifluoromethanesulfonimide)","99.0 - 105.0","?C","375.0","K","","","","","","-","","-","","-","","-"
"COC1=C(C)C=CC(=C1)[N+]([O-])=O","-","-","-","2-Methyl-5-nitroanisole","69.0 - 74.0","?C","344.5","K","","","","","","-","","-","","-","","-"
"NC(=S)C1=C(F)C=CC=C1","-","-","-","2-Fluorothiobenzamide","80.0 - 84.0","?C","355.0","K","","","","","","-","","-","","-","","-"
"NC(=S)C1=CC=C(F)C=C1","-","-","-","4-Fluorothiobenzamide","150.0","?C","423.0","K","","","","","","-","","-","","-","","-"
"NC(=S)C1=C(Cl)C=CC=C1","-","-","-","2-Chlorothiobenzamide","68.0 - 70.0","?C","342.0","K","","","","","","-","","-","","-","","-"
"NC(=S)C1=CC=C(Cl)C=C1","-","-","-","4-Chlorothiobenzamide","127.0 - 130.0","?C","401.5","K","","","","","","-","","-","","-","","-"
"NC(=S)C(C1=CC=CC=C1)C1=CC=CC=C1","-","-","-","Diphenylthioacetamide","143.0 - 146.0","?C","417.5","K","","","","","","-","","-","","-","","-"
"OC(=O)COC1=CC=C(C=C1)[N+]([O-])=O","-","-","-","4-Nitrophenoxyacetic acid","182.0 - 188.0","?C","458.0","K","","","","","","-","","-","","-","","-"
"COC1=CC=C(C=C1)C(N)=S","-","-","-","4-Methoxythiobenzamide","148.0 - 152.0","?C","423.0","K","","","","","","-","","-","","-","","-"
"BrC1=CNC=N1","-","-","-","4-Bromo-1H-imidazole","126.0 - 132.0","?C","402.0","K","","","","","","-","","-","","-","","-"
"OC(=O)COC1=CC=CC(=C1)[N+]([O-])=O","-","-","-","3-Nitrophenoxyacetic acid","156.0 - 161.0","?C","431.5","K","","","","","","-","","-","","-","","-"