"SMILES","CASRN","EXTERNALID","N","NAME","Melting Point","UNIT {Melting Point}","Melting Point {measured, converted}","UNIT {Melting Point}","Dataset","comment (property)","comment (chemical)","measurement method","Pressure","UNIT {Pressure}","Som set numeric condition","UNIT {Som set numeric condition}","Resp set numeric condition","UNIT {Resp set numeric condition}","Quality code","UNIT {Quality code}"
"FC1=C(N=C=S)C(Br)=CC(Br)=C1","-","-","-","2,4-dibromo-6-fluorophenyl isothiocyanate","50.0 - 51.0","?C","323.5","K","","","","","","-","","-","","-","","-"
"OC(=O)CCOC1=CC=C(Cl)C=C1","-","-","-","3-(4-Chlorophenoxy)propanoic acid","136.0 - 137.0","?C","409.5","K","","","","","","-","","-","","-","","-"
"OC(=O)C=CC1=CSC=C1","-","-","-","3-(3-Thienyl)acrylic acid","155.0 - 156.0","?C","428.5","K","","","","","","-","","-","","-","","-"
"CN1N=CC(N2CCOCC2)=C(Cl)C1=O","-","-","-","4-Chloro-2-methyl-5-morpholinopyridazin-3(2H)-one","131.0 - 133.0","?C","405.0","K","","","","","","-","","-","","-","","-"
"CON1C2CCCCC2N(OC)C(=O)C1=O","-","-","-","1,4-dimethoxyoctahydroquinoxaline-2,3-dione","128.0 - 131.0","?C","402.5","K","","","","","","-","","-","","-","","-"
"NC1=C(Br)C=C(OC(F)(F)F)C=C1Br","-","-","","2,6-dibromo-4-(trifluoromethoxy)aniline","70.0 - 72.0","?C","344.0","K","","","","","","-","","-","","-","","-"
"NC1=C(Br)C=C(Br)C(Cl)=C1Cl","-","-","-","4,6-dibromo-2,3-dichloroaniline","98.0","?C","371.0","K","","","","","","-","","-","","-","","-"
"CCOC1=C(Br)C=C(Br)C=C1C=O","-","-","-","3:5-dibromo-2-ethoxybenzaldehyde","87.0 - 87.5","?C","360.2","K","","","","","","-","","-","","-","","-"
"COC1=CC=C(Cl)C=C1N=C=O","-","-","-","5-Chloro-2-methoxyphenyl isocyanate","60.0 - 62.0","?C","334.0","K","","","","","","-","","-","","-","","-"
"ClCC(=O)N(C1CCCCC1)C1=CC=CC=C1","-","-","-","2-Chloro-N-cyclohexyl-N-phenylacetamide","103.0 - 105.0","?C","377.0","K","","","","","","-","","-","","-","","-"
"CC1=C(SC=C1S(=O)(=O)C1=CC=C(Cl)C=C1)C(Cl)=O","-","-","-","4-[(4-Chlorophenyl)sulfonyl]-3-methylthiophene-2-carbonyl chloride","131.0 - 132.0","?C","404.5","K","","","","","","-","","-","","-","","-"
"NC1=C(Br)C=C(Cl)C=C1Br","-","-","-","2,6-Dibromo-4-chloroaniline","93.0 - 95.0","?C","367.0","K","","","","","","-","","-","","-","","-"
"[O-][N+](=O)C1=CC=C(C=C1)N1C=CC=C1C=O","-","-","-","1-(4-Nitrophenyl)-1H-pyrrole-2-carbaldehyde","166.5 - 169.0","?C","440.8","K","","","","","","-","","-","","-","","-"
"CN(C)C=C(C=O)C1=CC=CC=C1[N+]([O-])=O","-","-","-","3-(Dimethylamino)-2-(2-nitrophenyl)acrylaldehyde","119.0 - 120.0","?C","392.5","K","","","","","","-","","-","","-","","-"
"[O-][N+](=O)C1=CC=C(C=C1)C1=CSC(CCl)=N1","-","-","-","2-(chloromethyl)-4-(4-nitrophenyl)-1:3-thiazole","154.5 - 157.5","?C","429.0","K","","","","","","-","","-","","-","","-"
"COC1=C(OC)C=C2C(CCN=C2C2=CC(Cl)=CC=C2[N+]([O-])=O)=C1","-","-","-","1-(5-Chloro-2-nitrophenyl)-6,7-dimethoxy-3,4-dihydroisoquinoline","169.0 - 170.0","?C","442.5","K","","","","","","-","","-","","-","","-"
"[O-][N+](=O)C1=C(C=CC=C1)S(=O)(=O)N1C=CC=C1C=O","-","-","-","1-[(2-Nitrophenyl)sulfonyl]-1H-pyrrole-2-carbaldehyde","139.0 - 141.0","?C","413.0","K","","","","","","-","","-","","-","","-"
"[O-][N+](=O)C1=CC=C2C(=O)N(CCCBr)C(=O)C2=C1","-","-","-","2-(3-Bromopropyl)-5-nitroisoindoline-1,3-dione","104.0 - 107.0","?C","378.5","K","","","","","","-","","-","","-","","-"
"BrC1=C(Br)C(Br)=NN1","-","-","-","3,4,5-tribromo-1H-pyrazole","190.0 - 192.0","?C","464.0","K","","","","","","-","","-","","-","","-"
"ClC1=CC=C(CN2N=CC(Cl)=C(Cl)C2=O)C=C1","-","-","-","4:5-dichloro-2-(4-chlorobenzyl)-2:3-dihydropyridazin-3-one","138.0 - 139.0","?C","411.5","K","","","","","","-","","-","","-","","-"
"OC(=O)C1=CC2=C(C=CC(Br)=C2)C(Br)=C1O","-","-","-","4,7-Dibromo-3-hydroxy-2-naphthoic acid","251.0 - 253.0","?C","525.0","K","","","","","","-","","-","","-","","-"
"CC(C)(C)C1=CC(=C(O)C=C1O)C(C)(C)C","-","-","-","4,6-Di(tert-butyl)benzene-1,3-diol","120.0 - 121.0","?C","393.5","K","","","","","","-","","-","","-","","-"
"ClC1=C(Cl)N=CN1","-","-","-","4,5-dichloro-1H-imidazole","185.0 - 186.0","?C","458.5","K","","","","","","-","","-","","-","","-"
"COC(=O)C1=CC=C(NC(C)C)C(N)=C1","-","-","-","Methyl 3-amino-4-(isopropylamino)benzoate","104.0 - 106.0","?C","378.0","K","","","","","","-","","-","","-","","-"
"CC1=C(C(C)=NO1)[N+]([O-])=O","-","-","-","3,5-dimethyl-4-nitroisoxazole","57.0 - 60.0","?C","331.5","K","","","","","","-","","-","","-","","-"
"CSC1=CC=C(C=C1)[N+]([O-])=O","-","-","-","1-(methylthio)-4-nitrobenzene","65.0 - 68.0","?C","339.5","K","","","","","","-","","-","","-","","-"
"CCOC1=CC=C(C=CC(O)=O)C=C1","-","-","-","3-(4-ethoxyphenyl)acrylic acid","195.0 - 197.0","?C","469.0","K","","","","","","-","","-","","-","","-"
"COC1=CC=C(C=CC(=O)C2=CC3=CC=CC=C3C=C2)C=C1","-","-","-","3-(4-Methoxyphenyl)-1-(2-naphthyl)prop-2-en-1-one","92.0 - 95.0","?C","366.5","K","","","","","","-","","-","","-","","-"
"CC1=CC2(C)C3C(C1C1C2C(=O)OC1=O)C(=O)OC3=O","-","-","-","1,14-Dimethyl-4,10-dioxatetracyclo[5.5.2.02,6.08,12]tetradec-13-ene-3,5,9,11-tet","268.0 - 270.0","?C","542.0","K","","","","","","-","","-","","-","","-"
"CC1=CC=C(C=C1)N1C=CC=C1C=O","-","-","-","1-(4-Methylphenyl)-1H-pyrrole-2-carbaldehyde","48.0 - 50.0","?C","322.0","K","","","","","","-","","-","","-","","-"
"CCCCC1=CC=C(C=C1)C(N)=O","-","-","-","4-Butylbenzamide","127.0 - 129.0","?C","401.0","K","","","","","","-","","-","","-","","-"
"NC(=O)C1=CC(Cl)=CC(Cl)=C1","-","-","-","3,5-dichlorobenzamide","160.0 - 162.0","?C","434.0","K","","","","","","-","","-","","-","","-"
"COC1=CC2=C(C=C1)C=C(C(O)=O)C(=O)O2","-","-","-","7-Methoxy-2-oxo-2H-chromene-3-carboxylic acid","194.0 - 195.0","?C","467.5","K","","","","","","-","","-","","-","","-"
"NC1=CC(Cl)=C(Br)C=C1","-","-","-","4-Bromo-3-chloroaniline","74.0","?C","347.0","K","","","","","","-","","-","","-","","-"
"BrCC(=O)NC1=C(C=CC=C1)C(=O)C1=CC=CC=C1","-","-","-","N1-(2-Benzoylphenyl)-2-bromoacetamide","94.0 - 95.0","?C","367.5","K","","","","","","-","","-","","-","","-"
"CC1=C(Cl)C(O)=C(C(C)=C1Cl)[N+]([O-])=O","-","-","-","2,4-Dichloro-3,5-dimethyl-6-nitrophenol","227.0 - 229.0","?C","501.0","K","","","","","","-","","-","","-","","-"
"CN1CCN(C)C2=C1C=CC(Br)=C2","-","-","-","6-Bromo-1,4-dimethyl-1,2,3,4-tetrahydroquinoxaline","55.0 - 56.0","?C","328.5","K","","","","","","-","","-","","-","","-"
"CC1=CC=C(C=C1)S(=O)(=O)OCCC1=COC2=CC=CC=C12","-","-","-","2-(1-Benzofuran-3-yl)ethyl 4-methylbenzenesulfonate","61.0 - 62.0","?C","334.5","K","","","","","","-","","-","","-","","-"
"NC1=CC=C(CN2C=CN=C2)C=C1","-","-","-","4-(1H-Imidazol-1-ylmethyl)aniline","128.0 - 130.0","?C","402.0","K","","","","","","-","","-","","-","","-"
"CC(C)(C)OC(=O)N1CCN(CC1)C1=CC=C(C=O)C=N1","-","-","-","tert-Butyl 4-(5-formylpyrid-2-yl)piperazine-1-carboxylate","126.0 - 128.0","?C","400.0","K","","","","","","-","","-","","-","","-"
"N#CC1=CC(CN2C=NC=N2)=CC=C1","-","-","-","3-(1H-1,2,4-Triazol-1-ylmethyl)benzonitrile","91.0 - 92.0","?C","364.5","K","","","","","","-","","-","","-","","-"
"CN1N=C(C=C1CN)C1=CC=CC=C1","-","-","-","(1-Methyl-3-phenyl-1H-pyrazol-5-yl)methylamine","48.0 - 49.0","?C","321.5","K","","","","","","-","","-","","-","","-"
"CCOC(=O)C1=C(N)C2=NC=CN=C2S1","-","-","-","Ethyl 7-aminothieno[2,3-b]pyrazine-6-carboxylate","119.5 - 120.0","?C","392.8","K","","","","","","-","","-","","-","","-"
"ClS(=O)(=O)C1=C(C=CS1)C1OCCO1","-","-","-","3-(1,3-Dioxolan-2-yl)thiophene-2-sulfonyl chloride","93.0 - 94.0","?C","366.5","K","","","","","","-","","-","","-","","-"
"ClCC(=O)NC1=CC=C(OC2=CC=CC=C2)C=C1","-","-","-","2-Chloro-N-(4-phenoxyphenyl)acetamide","104.0 - 106.0","?C","378.0","K","","","","","","-","","-","","-","","-"
"CC1=C(CO)N=C(O1)C1=CC=CC=C1","-","-","-","(5-Methyl-2-phenyl-1,3-oxazol-4-yl)methanol","117.0 - 118.0","?C","390.5","K","","","","","","-","","-","","-","","-"
"CC1=C(CN)N=C(O1)C1=CC=CC=C1","-","-","-","(5-Methyl-2-phenyl-1,3-oxazol-4-yl)methylamine","42.0 - 46.0","?C","317.0","K","","","","","","-","","-","","-","","-"
"OCC1=CC=CC2=C1C=CN2","-","-","-","1H-Indol-4-ylmethanol","67.0 - 68.0","?C","340.5","K","","","","","","-","","-","","-","","-"
"O=C=NC1=CC=C(C=C1)C1=CC=CO1","-","-","-","2-(4-Isocyanatophenyl)furan","66.0","?C","339.0","K","","","","","","-","","-","","-","","-"
"BrC1=CC=C(C=C1)C1=CC=CO1","-","-","-","2-(4-Bromophenyl)furan","83.0 - 84.0","?C","356.5","K","","","","","","-","","-","","-","","-"
"O=CC1=NC(=CC=C1)N1CCOCC1","-","-","-","6-Morpholinopyridine-2-carbaldehyde","93.0 - 95.0","?C","367.0","K","","","","","","-","","-","","-","","-"
"O=CC1=CC(CN2C=NC=N2)=CC=C1","-","-","-","3-(1H-1,2,4-Triazol-1-ylmethyl)benzaldehyde","54.0 - 56.0","?C","328.0","K","","","","","","-","","-","","-","","-"
"NC1=CC=C(CN2C=NC=N2)C=C1","-","-","-","4-(1H-1,2,4-triazol-1-ylmethyl)aniline","124.0 - 126.0","?C","398.0","K","","","","","","-","","-","","-","","-"
"CN1N=C(C=O)C=C1C1=CC=CO1","-","-","-","5-(2-Furyl)-1-methyl-1H-pyrazole-3-carbaldehyde","62.0 - 64.0","?C","336.0","K","","","","","","-","","-","","-","","-"
"CN1N=C(CO)C=C1C1=CC=CO1","-","-","-","[5-(2-Furyl)-1-methyl-1H-pyrazol-3-yl]methanol","43.0 - 48.0","?C","318.5","K","","","","","","-","","-","","-","","-"
"CN1CCN(CC2=C(I)C=CC=C2)CC1","-","-","-","1-(2-Iodobenzyl)-4-methylpiperazine","37.0 - 38.0","?C","310.5","K","","","","","","-","","-","","-","","-"
"CN1CCN(CC2=CC=CC=C2N)CC1","-","-","-","2-[(4-Methylpiperazin-1-yl)methyl]aniline","87.0 - 88.0","?C","360.5","K","","","","","","-","","-","","-","","-"
"ClC(=O)C1=CC=C(C=C1)C1=CSC=C1","-","-","-","4-Thien-3-ylbenzoyl chloride","145.0 - 147.0","?C","419.0","K","","","","","","-","","-","","-","","-"
"O=CC1=CC=C(C=C1)C1=CSC=C1","-","-","-","4-(3-Thienyl)benzaldehyde","101.0 - 102.0","?C","374.5","K","","","","","","-","","-","","-","","-"
"ClC(=O)C1=CC=C(OC2=CC=CC=C2)C=C1","-","-","-","4-Phenoxybenzoyl chloride","22.0 - 23.0","?C","295.5","K","","","","","","-","","-","","-","","-"
"OC(=O)CN1C2=CC=CC=C2N=C1C(F)(F)F","-","-","-","[2-(trifluoromethyl)-1H-benzimidazol-1-yl]acetic acid","248.0","?C","521.0","K","","","","","","-","","-","","-","","-"
"OC(=O)CCCN1C2=CC=CC=C2N=C1C(F)(F)F","-","-","-","4-[2-(Trifluoromethyl)-1H-benzimidazol-1-yl]butanoic acid","143.0 - 145.0","?C","417.0","K","","","","","","-","","-","","-","","-"
"OC(=O)C1=CC=C2NC3=C(CCCC3)C2=C1","-","-","-","6,7,8,9-Tetrahydro-5h-carbazole-3-carboxylic acid","266.0 - 268.0","?C","540.0","K","","","","","","-","","-","","-","","-"
"CC1=C(C)C2=CC(=CC=C2N1)C(O)=O","-","-","-","2,3-Dimethyl-1H-indole-5-carboxylic acid","239.0 - 242.0","?C","513.5","K","","","","","","-","","-","","-","","-"
"CC1=C(C)C2=CC=C(C=C2N1)C(O)=O","-","-","-","2,3-Dimethyl-1H-indole-6-carboxylic acid","150.0","?C","423.0","K","","","","","","-","","-","","-","","-"
"C=CCC(=O)N1CCN(CC1)C(=O)OCC1C2=C(C=CC=C2)C2=C1C=CC=C2","-","-","-","9H-Fluoren-9-ylmethyl 4-(3-butenoyl)tetrahydro-1(2H)-pyrazinecarboxylate","105.0 - 107.0","?C","379.0","K","","","","","","-","","-","","-","","-"
"NC1=CSC2=NC=CN=C12","-","-","-","Thieno[2,3-b]pyrazin-7-amine","88.0 - 89.0","?C","361.5","K","","","","","","-","","-","","-","","-"
"[O-][N+](=O)C1=CC=C2NC(=O)NC2=C1","-","-","-","5-Nitro-2-benzimidazolinone","314.0 - 317.0","?C","588.5","K","","","","","","-","","-","","-","","-"
"O=CC1=C(SC=C1)C=C(C#N)C#N","-","-","-","2-[(3-Formyl-2-thienyl)methylidene]malononitrile","126.0 - 130.5","?C","401.2","K","","","","","","-","","-","","-","","-"
"C#CC1=CC=C2N=CC=NC2=C1","-","-","-","6-Ethynylquinoxaline","98.0","?C","371.0","K","","","","","","-","","-","","-","","-"
"C#CC1=CC=C(C=C1)C1=CN=CO1","-","-","-","5-(4-Ethynylphenyl)-1,3-oxazole","76.0 - 77.0","?C","349.5","K","","","","","","-","","-","","-","","-"
"CC1=C(C=O)N=C(O1)C1=CC=CC=C1","-","-","-","5-Methyl-2-phenyl-1,3-oxazole-4-carbaldehyde","87.0 - 88.0","?C","360.5","K","","","","","","-","","-","","-","","-"
"CN1C=CC2=C1C=CC=C2C(O)=O","-","-","-","1-Methyl-1H-indole-4-carboxylic acid","243.0 - 245.0","?C","517.0","K","","","","","","-","","-","","-","","-"
"N#CC1=CC=CC=C1CN1CCOCC1","-","-","-","2-(Morpholin-4-ylmethyl)benzonitrile","49.0 - 50.0","?C","322.5","K","","","","","","-","","-","","-","","-"
"CNCC1=CC=C(C=C1)C1=CSC=C1","-","-","-","N-Methyl-N-(4-thien-3-ylbenzyl)amine","68.0 - 69.0","?C","341.5","K","","","","","","-","","-","","-","","-"
"OCC1=CC=C(OC2=CC=CC=C2)C=C1","-","-","-","(4-Phenoxyphenyl)methanol","55.0 - 56.0","?C","328.5","K","","","","","","-","","-","","-","","-"
"CC(C)(C)OC(=O)N1CCN(CC1C(O)=O)C(=O)OCC1C2=C(C=CC=C2)C2=C1C=CC=C2","-","-","-","1-(tert-Butoxycarbonyl)-4-[(9H-fluoren-9-ylmethoxy)carbonyl]-2-piperazinecarboxylic acid","156.0 - 158.0","?C","430.0","K","","","","","","-","","-","","-","","-"
"CC(C)NC(=O)C(C)C","-","-","-","N1-Isopropyl-2-methylpropanamide","103.0 - 104.0","?C","376.5","K","","","","","","-","","-","","-","","-"
"NC1=C(C=C(SC#N)C=C1)C(O)=O","-","-","-","2-Amino-5-thiocyanatobenzoic acid","165.0 - 168.0","?C","439.5","K","","","","","","-","","-","","-","","-"
"OCCN1CCNC1=S","-","-","-","1-(2-Hydroxyethyl)imidazolidine-2-thione","136.5 - 137.5","?C","410.0","K","","","","","","-","","-","","-","","-"
"OC(C1CC1)C1=CC=C(Br)C=C1","-","-","-","(4-Bromophenyl)(cyclopropyl)methanol","57.0 - 57.5","?C","330.2","K","","","","","","-","","-","","-","","-"
"ClC1=C(Cl)C=C(C=CC(=O)C=CC2=CC(Cl)=C(Cl)C=C2)C=C1","-","-","-","1,5-Di(3,4-dichlorophenyl)penta-1,4-dien-3-one","175.0 - 177.0","?C","449.0","K","","","","","","-","","-","","-","","-"
"BrC1=CC=C2NN=CC2=C1","-","-","-","5-Bromo-1H-indazole","123.0 - 124.0","?C","396.5","K","","","","","","-","","-","","-","","-"
"ClC(Cl)=C(Cl)C(=O)NC1=CC=C(Cl)C=C1","-","-","-","2,3,3-Trichloro-N-(4-chlorophenyl)acrylamide","146.0","?C","419.0","K","","","","","","-","","-","","-","","-"
"O=CC1=NC(=CC=C1)N1CCCC1","-","-","-","6-Pyrrolidin-1-ylpyridine-2-carbaldehyde","63.0 - 65.0","?C","337.0","K","","","","","","-","","-","","-","","-"
"CN1N=C(C=C1CCl)C1=CC=CS1","-","-","-","5-(Chloromethyl)-1-methyl-3-thien-2-yl-1H-pyrazole","96.0 - 97.0","?C","369.5","K","","","","","","-","","-","","-","","-"
"O=CC1=CC(=CC=C1)C1=CSC=C1","-","-","-","3-Thien-3-ylbenzaldehyde","48.0 - 49.0","?C","321.5","K","","","","","","-","","-","","-","","-"
"CC1=CC(C(O)=O)=C(O1)C1=CC=CC=C1","-","-","-","5-Methyl-2-phenyl-3-furoic acid","145.0 - 147.0","?C","419.0","K","","","","","","-","","-","","-","","-"
"CC1=NOC(=N1)C1=CC=C(Br)C=C1","-","-","-","5-(4-Bromophenyl)-3-methyl-1,2,4-oxadiazole","97.0 - 98.0","?C","370.5","K","","","","","","-","","-","","-","","-"
"ON=CNC1=CC=C(Cl)N=N1","-","-","-","N-(6-Chloropyridazin-3-yl)-N'-hydroxyiminoformamide","207.0 - 211.0","?C","482.0","K","","","","","","-","","-","","-","","-"
"ClC1=NC=CC=C1N1C(=O)C=CC1=O","-","-","-","1-(2-Chloro-3-pyridyl)-2,5-dihydro-1H-pyrrole-2,5-dione","115.0 - 117.0","?C","389.0","K","","","","","","-","","-","","-","","-"
"NC1=NC(Cl)=C(C#N)C(CC#N)=C1C#N","-","-","-","2-Amino-6-chloro-4-(cyanomethyl)pyridine-3,5-dicarbonitrile","257.0 - 259.0","?C","531.0","K","","","","","","-","","-","","-","","-"
"NC1=C(N=O)C(=O)NC(=O)N1","-","-","-","6-Amino-5-nitroso-1,2,3,4-tetrahydropyrimidine-2,4-dione","280.0","?C","553.0","K","","","","","","-","","-","","-","","-"
"COC(=O)CC1=C(Cl)NC(C)=C1C(=O)OC","-","-","-","Methyl 5-chloro-4-(2-methoxy-2-oxoethyl)-2-methyl-1H-pyrrole-3-carboxylate","86.0","?C","359.0","K","","","","","","-","","-","","-","","-"
"CN1C(C)=NC=C1C=O","-","-","-","1,2-dimethyl-1H-imidazole-5-carbaldehyde","76.0 - 77.0","?C","349.5","K","","","","","","-","","-","","-","","-"
"OC(=O)C1=NC(=CC=C1)N1CCOCC1","-","-","-","6-Morpholinopyridine-2-carboxylic acid","127.0 - 129.0","?C","401.0","K","","","","","","-","","-","","-","","-"
"CN1N=C(CO)C=C1C1=CC=CS1","-","-","-","(1-Methyl-5-thien-2-yl-1H-pyrazol-3-yl)methanol","56.0 - 60.0","?C","331.0","K","","","","","","-","","-","","-","","-"
"CN1N=C(C=C1C=O)C1=CC=CS1","-","-","-","1-Methyl-3-thien-2-yl-1H-pyrazole-5-carbaldehyde","76.0 - 77.0","?C","349.5","K","","","","","","-","","-","","-","","-"
"CN1N=C(C=C1CO)C1=CC=CS1","-","-","-","(1-Methyl-3-thien-2-yl-1H-pyrazol-5-yl)methanol","95.0 - 96.0","?C","368.5","K","","","","","","-","","-","","-","","-"
"CC1=NN(C(C)=C1C#N)C1=CC=CC=C1","-","-","-","3,5-Dimethyl-1-phenyl-1H-pyrazole-4-carbonitrile","85.0 - 86.0","?C","358.5","K","","","","","","-","","-","","-","","-"
"NC1=CC=CC(=C1)C1=CSC=C1","-","-","-","3-Thien-3-ylaniline","89.0","?C","362.0","K","","","","","","-","","-","","-","","-"
"NC1=CC=CC=C1CN1CCOCC1","-","-","-","2-(Morpholin-4-ylmethyl)aniline","70.0 - 71.0","?C","343.5","K","","","","","","-","","-","","-","","-"
"OCC1=CC=C(C=C1)C1=CSC=C1","-","-","-","(4-Thien-3-ylphenyl)methanol","152.0 - 154.0","?C","426.0","K","","","","","","-","","-","","-","","-"
"CC1(C)C(Br)C(=O)C(Br)=C1Br","-","-","-","2,3,5-Tribromo-4,4-dimethylcyclopent-2-en-1-one","87.0","?C","360.0","K","","","","","","-","","-","","-","","-"
"NC1=CC=C(N2CCOCC2)C(Cl)=C1","-","-","-","3-Chloro-4-morpholinoaniline","102.0 - 104.0","?C","376.0","K","","","","","","-","","-","","-","","-"
"FC1=CC=C(CS(Cl)(=O)=O)C=C1","-","-","-","(4-Fluorophenyl)methanesulfonyl chloride","61.0 - 63.0","?C","335.0","K","","","","","","-","","-","","-","","-"
"BrCC1=CC(=CC=C1)C1=CC=CS1","-","-","-","2-[3-(Bromomethyl)phenyl]thiophene","57.0","?C","330.0","K","","","","","","-","","-","","-","","-"
"OC(=O)C1=C(C=CC=C1)C1=CC=CO1","-","-","-","2-(2-Furyl)benzoic acid","87.0","?C","360.0","K","","","","","","-","","-","","-","","-"
"BrCC1=CC=C(C=C1)C1=CSC=C1","-","-","-","3-[4-(Bromomethyl)phenyl]thiophene","107.0 - 109.0","?C","381.0","K","","","","","","-","","-","","-","","-"
"CC1=NOC(=N1)C1=CC(Br)=CC=C1","-","-","-","5-(3-Bromophenyl)-3-methyl-1,2,4-oxadiazole","95.0 - 96.0","?C","368.5","K","","","","","","-","","-","","-","","-"
"ClC1=NC(=CC=N1)C1=CC=CC=C1","-","-","-","2-Chloro-4-phenylpyrimidine","86.0 - 87.0","?C","359.5","K","","","","","","-","","-","","-","","-"
"CC1=NSC(=N1)C1=CC=CC=C1","-","-","-","3-Methyl-5-phenyl-1,2,4-thiadiazole","50.0 - 52.0","?C","324.0","K","","","","","","-","","-","","-","","-"
"CC1(C)CC2(CC(C)(C)C3=C2C=C(O)C(O)=C3)C2=C1C=C(O)C(O)=C2","-","-","-","5,5',6,6'-Tetrahydroxy-3,3,3',3'-tetramethylbis-1,1'-spirohydrindene","300.0","?C","573.0","K","","","","","","-","","-","","-","","-"
"CCOC(=O)C(C#N)C(=O)C(=O)OCC","-","-","-","Diethyl 2-cyano-3-oxosuccinate","88.0 - 90.0","?C","362.0","K","","","","","","-","","-","","-","","-"
"OC(=O)C1=NC(=CC=C1)N1CCCCC1","-","-","-","6-Piperidinopyridine-2-carboxylic acid","98.0 - 101.0","?C","372.5","K","","","","","","-","","-","","-","","-"
"OCC1=C(C=CC=C1)C1=CC=CO1","-","-","-","[2-(2-Furyl)phenyl]methanol","72.0","?C","345.0","K","","","","","","-","","-","","-","","-"
"OC(=O)C1=CC(=CC=C1)C1=CSC=C1","-","-","-","3-Thien-3-ylbenzoic acid","177.0 - 179.0","?C","451.0","K","","","","","","-","","-","","-","","-"
"COC1=CC=C(C(=O)C=CC2=CC=CC=C2)C(O)=C1","-","-","-","1-(2-hydroxy-4-methoxyphenyl)-3-phenylprop-2-en-1-one","106.0 - 108.0","?C","380.0","K","","","","","","-","","-","","-","","-"
"CN1CCN(CC2=C(CO)C=CC=C2)CC1","-","-","-","{2-[(4-Methylpiperazin-1-yl)methyl]phenyl}methanol","62.0 - 64.0","?C","336.0","K","","","","","","-","","-","","-","","-"
"OC(=O)C1COCN1C(=O)OCC1=CC=CC=C1","-","-","-","(R)-(+)-3-(Benzyloxycarbonyl)-4-oxazolidinecarboxylic acid","70.0 - 74.0","?C","345.0","K","","","","","","-","","-","","-","","-"
"COC(=O)C1(Br)CCC(Br)(CC1)C(=O)OC","-","-","-","Dimethyl 1,4-dibromocyclohexane-1,4-dicarboxylate","148.0 - 150.0","?C","422.0","K","","","","","","-","","-","","-","","-"
"OC(=O)C1=CC=C(OC2=NC=CC=C2)C=C1","-","-","-","4-(Pyrid-2-yloxy)benzoic acid","174.0 - 175.0","?C","447.5","K","","","","","","-","","-","","-","","-"
"ClC(=O)C1=CC=C(OC2=NC=CC=C2)C=C1","-","-","-","4-(Pyrid-2-yloxy)benzoyl chloride","80.0 - 81.0","?C","353.5","K","","","","","","-","","-","","-","","-"
"O=CC1=CC=C(OC2=NC=CC=C2)C=C1","-","-","-","4-(Pyrid-2-yloxy)benzaldehyde","45.0 - 46.0","?C","318.5","K","","","","","","-","","-","","-","","-"