"SMILES","CASRN","EXTERNALID","N","NAME","Melting Point","UNIT {Melting Point}","Melting Point {measured, converted}","UNIT {Melting Point}","Dataset","comment (property)","comment (chemical)","measurement method","Pressure","UNIT {Pressure}","Som set numeric condition","UNIT {Som set numeric condition}","Resp set numeric condition","UNIT {Resp set numeric condition}","Quality code","UNIT {Quality code}"
"CCC1=NN(CCCN2CCN(CC2)C2=CC=CC(Cl)=C2)C(=O)N1CCOC1=CC=CC=C1","83366-66-9","-","-","Nefazodone","83.5","?C","356.5","K","","","","","","-","","-","","-","","-"
"CC(C)(C)C(O)C(=CC1=CC=C(Cl)C=C1)N1C=NC=N1","83657-17-4","-","-","Uniconazole-P","153.0","?C","426.0","K","","","","","","-","","-","","-","","-"
"CC(C)(C)C(O)C(=CC1=CC=C(Cl)C=C1Cl)N1C=NC=N1","83657-24-3","-","-","Diniconazole","148.0 - 149.0","?C","421.5","K","","","","","","-","","-","","-","","-"
"FC(F)C(F)(F)OC1=C(Cl)C=C(NC(=O)NC(=O)C2=C(F)C=CC=C2F)C=C1Cl","86479-06-3","-","-","Hexaflumuron","203.5","?C","476.5","K","","","","","","-","","-","","-","","-"
"ClC1=CC=C(CSC(CN2C=NC=N2)=NC2=CC=C(Cl)C=C2Cl)C=C1","86598-92-7","-","-","Imibenconazole","90.0","?C","363.0","K","","","","","","-","","-","","-","","-"
"CC(CC(N)=O)N1N=NC2=C1C=CC=C2","99069-47-3","-","-","1H-BENZOTRIAZOLE-1-PROPANAMIDE, ?-METHYL-","103.0","?C","376.0","K","","","","","","-","","-","","-","","-"
"CCOC(=O)C1=NN(C(=N1)C(Cl)(Cl)Cl)C1=CC=C(Cl)C=C1Cl","103112-35-2","-","-","Fenchlorazole-ethyl","110.0","?C","383.0","K","","","","","","-","","-","","-","","-"
"CCOC(=O)CSC1=NC(=NN1C(=O)N(C)C)C(C)(C)C","112143-82-5","-","-","Triazamate","53.0","?C","326.0","K","","","","","","-","","-","","-","","-"
"FC(F)C(F)(F)OCC(CN1C=NC=N1)C1=CC=C(Cl)C=C1Cl","112281-77-3","-","-","Tetraconazole","6.0","?C","279.0","K","","","","","","-","","-","","-","","-"
"CCC(N1N=NC2=C1C=CC=C2)C(N)=O","115054-75-6","-","-","1H-BENZOTRIAZOLE-1-ACETAMIDE, _-ETHYL-","143.0","?C","416.0","K","","","","","","-","","-","","-","","-"
"CC(C)(N1N=NC2=C1C=CC=C2)C(N)=O","115054-77-8","-","-","1H-BENZOTRIAZOLE-1-ACETAMIDE, _,_-DIMETHYL-","187.0","?C","460.0","K","","","","","","-","","-","","-","","-"
"CCOC(=O)C(CC)N1N=C2C=CC=CC2=N1","115054-80-3","-","-","2H-BENZOTRIAZOLE-2-ACETIC ACID, _-ETHYL-, ETHYL","48.5","?C","321.5","K","","","","","","-","","-","","-","","-"
"CCCCC(N1N=NC2=C1C=CC=C2)C(N)=O","115054-81-4","-","-","1H-BENZOTRIAZOLE-1-ACETAMIDE, _-BUTYL-","118.0","?C","391.0","K","","","","","","-","","-","","-","","-"
"CCCC(N1N=C2C=CC=CC2=N1)C(=O)OCC","115054-82-5","-","-","2H-BENZOTRIAZOLE-2-ACETIC ACID, _-PROPYL-, ETHYL","36.5","?C","309.5","K","","","","","","-","","-","","-","","-"
"CCCC(N1N=C2C=CC=CC2=N1)C(N)=O","115054-83-6","-","-","2H-BENZOTRIAZOLE-2-ACETAMIDE, _-PROPYL-","126.5","?C","399.5","K","","","","","","-","","-","","-","","-"
"CC(C)(N1N=C2C=CC=CC2=N1)C(N)=O","115054-85-8","-","-","2H-BENZOTRIAZOLE-2-ACETAMIDE, _,_-DIMETHYL-","173.5","?C","446.5","K","","","","","","-","","-","","-","","-"
"CCCC(N1N=NC2=C1C=CC=C2)C(N)=O","115054-89-2","-","-","1H-BENZOTRIAZOLE-1-ACETAMIDE, _-PROPYL-","125.0","?C","398.0","K","","","","","","-","","-","","-","","-"
"CCCCC(N1N=C2C=CC=CC2=N1)C(N)=O","115054-90-5","-","-","2H-BENZOTRIAZOLE-2-ACETAMIDE, _-BUTYL-","101.5","?C","374.5","K","","","","","","-","","-","","-","","-"
"CC(CCC(O)=O)N1N=NC2=C1C=CC=C2","115054-91-6","-","-","PENTANOIC ACID, 4-(1H-BENZOTRIAZOL-1-YL)-","86.0","?C","359.0","K","","","","","","-","","-","","-","","-"
"CC(CC(N)=O)N1N=C2C=CC=CC2=N1","115054-94-9","-","-","2H-BENZOTRIAZOLE-2-PROPANAMIDE, ?-METHYL-","152.5","?C","425.5","K","","","","","","-","","-","","-","","-"
"CC(CCC(O)=O)N1N=C2C=CC=CC2=N1","115054-96-1","-","-","PENTANOIC ACID, 4-(2H-BENZOTRIAZOL-2-YL)-","73.0","?C","346.0","K","","","","","","-","","-","","-","","-"
"CC(CCC(N)=O)N1N=C2C=CC=CC2=N1","115054-97-2","-","-","2H-BENZOTRIAZOLE-1-BUTANAMIDE, 4-METHYL-","102.0","?C","375.0","K","","","","","","-","","-","","-","","-"
"COC1=CC=C(CN2C=NC=N2)C=C1","115201-42-8","-","-","1,2,4-Triazole,1-(4-MeO-benzyl)-","41.5","?C","314.5","K","","","","","","-","","-","","-","","-"
"ClC1=CC(Cl)=C(C=C1)C1(CN2C=NC=N2)CC(Br)CO1","116255-48-2","-","-","Bromuconazole","84.0","?C","357.0","K","","","","","","-","","-","","-","","-"
"NC(=O)C1=NN(C(=N1)C1=CC=CC=C1)C1=CC(COCC(F)(F)C(F)(F)F)=C(Cl)C=C1","119126-15-7","-","-","Flupoxam","146.0","?C","419.0","K","","","","","","-","","-","","-","","-"
"CC1COC(CN2C=NC=N2)(O1)C1=C(Cl)C=C(OC2=CC=C(Cl)C=C2)C=C1","119446-68-3","-","-","Difenoconazole","76.0","?C","349.0","K","","","","","","-","","-","","-","","-"
"CC1=NN(C(=O)N1C(F)F)C1=CC(NS(C)(=O)=O)=C(Cl)C=C1Cl","122836-35-5","-","-","Sulfentrazone","122.0","?C","395.0","K","","","","","","-","","-","","-","","-"
"CC1(C)CCC(CC2=CC=C(Cl)C=C2)C1(O)CN1C=NC=N1","125116-23-6","-","-","Metconazole","111.5","?C","384.5","K","","","","","","-","","-","","-","","-"
"CC(C)C1CCC(CC2=CC=C(Cl)C=C2)C1(O)CN1C=NC=N1","125225-28-7","-","-","IPCONAZOLE","89.0","?C","362.0","K","","","","","","-","","-","","-","","-"
"CCN(CC)C(=O)N1C=NC(=N1)S(=O)(=O)C1=C(C)C=C(C)C=C1C","125306-83-4","-","-","Cafenstrole","115.0","?C","388.0","K","","","","","","-","","-","","-","","-"
"CCOC(=O)C(Cl)CC1=C(Cl)C=C(F)C(=C1)N1N=C(C)N(C(F)F)C1=O","128639-02-1","-","-","Carfentrazone-ethyl","-22.1","?C","250.9","K","","","","","","-","","-","","-","","-"
"CC1=NC(=C(S1)C(=O)NC1=C(Br)C=C(OC(F)(F)F)C=C1Br)C(F)(F)F","130000-40-7","-","-","Thifluzamide","178.0","?C","451.0","K","","","","","","-","","-","","-","","-"
"CC1(C)CCC(=CC2=CC=C(Cl)C=C2)C1(O)CN1C=NC=N1","131983-72-7","-","-","Triticonazole","140.0","?C","413.0","K","","","","","","-","","-","","-","","-"
"FC1=CC=C2N=C(N3C=NC=N3)N(C(=O)C2=C1)C1=CC=C(Cl)C=C1Cl","136426-54-5","-","-","Fluquinconazole","192.0","?C","465.0","K","","","","","","-","","-","","-","","-"
"COC1=NC2=NC(=NN2C(OC)=C1)S(=O)(=O)NC1=C(Cl)C(C)=CC=C1Cl","139528-85-1","-","-","Metosulam","211.0","?C","484.0","K","","","","","","-","","-","","-","","-"
"CCOC(=O)NC1=CC2=NN(C)N=C2C=C1","142312-64-9","-","-","Carbamic acid, (2-methyl-2H-benzotriazol-5-yl)-,","148.0","?C","421.0","K","","","","","","-","","-","","-","","-"
"CCOC1=NC(F)=CC2=NC(=NN12)S(=O)(=O)NC1=C(Cl)C=CC=C1C(=O)OC","147150-35-4","-","-","CLORANSULAM","217.0","?C","490.0","K","","","","","","-","","-","","-","","-"
"CN(N(O)O)C1=C(F)C(F)=C(F)C(F)=C1F","-","-","82","JFC2001-02,01","39.5","?C","312.5","K","","","","","759.8","mm Hg","1.0","Log unit","2.0","Log unit","","-"
"CN(N(O)O)C1=C(F)C(F)=C(C#N)C(F)=C1F","-","-","84","JFC2001-06,03","53.0","?C","326.0","K","","","","","759.8","mm Hg","1.0","Log unit","1.0","Log unit","","-"
"CN(N(O)O)C1=C(F)C(F)=C(C(F)=C1F)C1=C(F)C(F)=C(F)C(F)=C1F","-","-","85","JFC2001-07,04","139.5","?C","412.5","K","","","","","759.8","mm Hg","1.0","Log unit","1.0","Log unit","","-"
"CNC1=C(F)C(F)=C(C(F)=C1F)C1=C(F)C(F)=C(F)C(F)=C1F","-","-","86","JFC2001-10,05","72.0","?C","345.0","K","","","","","759.8","mm Hg","1.0","Log unit","1.0","Log unit","","-"
"CC1CC(C)(C)C2=CC(C(C)=O)=C(C)C=C2C1(C)C","1506-02-1","-","-","AHTN","54.5","?C","327.5","K","","","","","","-","","-","","-","","-"
"FC(F)(F)C(F)(F)C(F)(F)C(F)(F)C(F)(F)C(F)(F)C(F)(F)C(F)(F)I","-","-","","-","37.0","?C","310.0","K","","","","","1.0","atm","","-","","-","","-"
"FC(F)(Cl)C(F)(F)C(F)(F)C(F)(F)C(F)(F)C(F)(F)C(F)(F)C(F)(F)C=O","-","-","","-","36.0 - 38.0","?C","310.0","K","","","","","1.0","atm","","-","","-","","-"
"FC(F)(C=O)C(F)(F)C(F)(F)C(F)(F)C(F)(F)C(F)(F)C(F)(F)C(F)(F)C=O","-","-","","-","68.0 - 70.5","?C","342.2","K","","","","","1.0","atm","","-","","-","","-"
"CN(C1=C(F)C(F)=C(F)C(F)=C1F)N(=O)=O","-","-","82","JFC2001-02,01","39.5","?C","312.5","K","","","","","759.8","mm Hg","1.0","Log unit","2.0","Log unit","","-"
"CN(C1=C(F)C(F)=C(C#N)C(F)=C1F)N(=O)=O","-","-","84","JFC2001-06,03","53.0","?C","326.0","K","","","","","759.8","mm Hg","1.0","Log unit","1.0","Log unit","","-"
"CN(C1=C(F)C(F)=C(C(F)=C1F)C1=C(F)C(F)=C(F)C(F)=C1F)N(=O)=O","-","-","85","JFC2001-07,04","139.5","?C","412.5","K","","","","","759.8","mm Hg","1.0","Log unit","1.0","Log unit","","-"
"COC1=NC(OC)=NC(\C=C(\O)C(F)(F)C(F)(F)F)=C1","-","-","4","6-(3,3,4,4,4-Pentafluoro-2-hydroxy-1-butenyl)-2,4-dimethoxy-pyrimidine","58.0 - 60.0","?C","332.0","K","","","","","","-","","-","","-","","-"
"O\C(=C/C1=CC(=O)NC(=O)N1)C(F)(F)C(F)(F)F","-","-","5","6(3,3,4,4,4-Pentafluoro-2-hydroxy-1-butenyl)-2,4-pyrimidinedione","278.0 - 281.0","?C","552.5","K","","","","","","-","","-","","-","","-"
"FC(F)(F)C(F)(C(F)(F)F)C(F)(C(F)(F)F)C(F)(F)F","-","-","","-","-16.7","?C","256.3","K","","","","","","-","","-","","-","","-"
"OC(=O)C(F)(F)C(F)(F)C(F)(F)C(F)(C(F)(F)F)C(F)(F)F","-","015899-29-3","10","-","13.0","?C","286.0","K","","","","","759.8","mm Hg","","-","","-","","-"
"FC1(F)C(F)(F)C(F)(F)C(F)(C(=O)NC2=CC=C(C=C2Br)N(=O)=O)C(F)(F)C1(F)F","-","107349-85-9","55","-","102.0","?C","375.0","K","","","","","759.8","mm Hg","1.0","Log unit","1.0","Log unit","","-"
"FC1=CC=C(NS(=O)(=O)C(F)(F)F)C(=C1)C(F)(F)F","-","JAFC1974-096,07","61","-","45.0","?C","318.0","K","","","","","759.8","mm Hg","2.0","Log unit","1.0","Log unit","","-"
"FC1=CC(F)=C(F)C=C1NS(=O)(=O)C(F)(F)F","-","JAFC1974-162,17","71","-","58.5","?C","331.5","K","","","","","759.8","mm Hg","1.0","Log unit","1.0","Log unit","","-"
"FC1=CC(F)=C(F)C(NS(=O)(=O)C(F)(F)F)=C1F","-","JAFC1974-174,19","73","-","95.0","?C","368.0","K","","","","","759.8","mm Hg","2.0","Log unit","2.0","Log unit","","-"
"FC1(F)C(F)(F)C(F)(F)C(F)(C(=O)NC2=CC=C(C=C2Cl)N(=O)=O)C(F)(F)C1(F)F","-","JAFC1988-36-04","77","-","93.0","?C","366.0","K","","","","","759.8","mm Hg","1.0","Log unit","1.0","Log unit","","-"
"C=CCOCC1CO1","-","-","-","ALLYL GLYCIDYL ETHER","-100.0","?C","173.0","K","","","","","","-","","-","","-","","-"
"C=CCN1C(=O)CSC1=S","-","-","-","N-Allylrhodanine","43.0 - 46.0","?C","317.5","K","","","","","","-","","-","","-","","-"
"NCCN1CCNCC1","-","-","-","1-(2-Aminoethyl)piperazine","-19.0","?C","254.0","K","","","","","","-","","-","","-","","-"
"CCC(C)CO","-","-","-","(S)-(-)-2-Methyl-1-butanol","-70.0","?C","203.0","K","","","","","","-","","-","","-","","-"
"O=C1OC(=O)C2=CC3=C(C=C12)C(=O)OC3=O","-","-","-","1,2,4,5-Benzenetetracarboxylic anhydride","283.0 - 287.0","?C","558.0","K","","","","","","-","","-","","-","","-"
"CNCC1=CC=CC=C1","-","-","-","N-Methylbenzylamine","-24.0","?C","249.0","K","","","","","","-","","-","","-","","-"
"COC1=CC(Br)=CC=C1","-","-","-","1-BROMO-3-METHOXYBENZENE","2.0","?C","275.0","K","","","","","","-","","-","","-","","-"
"OCCBr","-","-","-","2-BROMOETHANOL","-80.0","?C","193.0","K","","","","","","-","","-","","-","","-"
"BrCCC1=CC=CC=C1","-","-","-","(2-BROMOETHYL)BENZENE","-56.0","?C","217.0","K","","","","","","-","","-","","-","","-"
"CC(O)CCO","-","-","-","1,3-BUTANEDIOL","-54.0","?C","219.0","K","","","","","","-","","-","","-","","-"
"CC(O)C=C","-","-","-","3-BUTEN-2-OL","-100.0","?C","173.0","K","","","","","","-","","-","","-","","-"
"CC(=O)CC(=O)OC(C)(C)C","-","-","-","tert-butyl acetoacetate","-38.0","?C","235.0","K","","","","","","-","","-","","-","","-"
"CCC(C)C1=CC=CC=C1","-","-","-","SEC-BUTYLBENZENE","-75.0","?C","198.0","K","","","","","","-","","-","","-","","-"
"CCCC(=O)OC(=O)CCC","-","-","-","n-Butyric anhydride","-73.0","?C","200.0","K","","","","","","-","","-","","-","","-"
"CCOC(CCl)OCC","-","-","-","Chloroacetaldehyde diethyl acetal","-45.0","?C","228.0","K","","","","","","-","","-","","-","","-"
"COC(CCl)OC","-","-","-","Chloroacetaldehyde dimethyl acetal","-73.0","?C","200.0","K","","","","","","-","","-","","-","","-"
"NC1=C(Cl)C=CC=C1","-","-","-","2-chloroaniline","-3.0","?C","270.0","K","","","","","","-","","-","","-","","-"
"ClC1=CC=C(C=C1)C(N1CCNCC1)C1=CC=CC=C1","-","-","-","1-(4-Chlorobenzhydryl)piperazine","65.0 - 75.0","?C","343.0","K","","","","","","-","","-","","-","","-"
"ClC1=CC=C(C=C1)C(Cl)(Cl)Cl","-","-","-","4-CHLOROBENZOTRICHLORIDE","5.8","?C","278.8","K","","","","","","-","","-","","-","","-"
"CCCC(=O)C1=CC=C(Cl)C=C1","-","-","-","4'-Chlorobutyrophenone","36.0 - 39.0","?C","310.5","K","","","","","","-","","-","","-","","-"
"ClCCCC(Cl)=O","-","-","-","4-Chlorobutyryl chloride","-47.0","?C","226.0","K","","","","","","-","","-","","-","","-"
"ClC(=O)C(Cl)(C1=CC=CC=C1)C1=CC=CC=C1","-","-","-","2-Chloro-2,2-diphenylacetyl chloride","47.0 - 52.0","?C","322.5","K","","","","","","-","","-","","-","","-"
"ClCCC1=CC=CC=C1","-","-","-","(2-Chloroethyl)benzene","-60.0","?C","213.0","K","","","","","","-","","-","","-","","-"
"CCOCCCl","-","-","-","2-Chloroethyl ethyl ether","-60.0","?C","213.0","K","","","","","","-","","-","","-","","-"
"OCCCCl","-","-","-","1-Chloro-3-hydroxypropane","-20.0","?C","253.0","K","","","","","","-","","-","","-","","-"
"ClCCC(Cl)=O","-","-","-","3-Chloropropionyl chloride","-32.0","?C","241.0","K","","","","","","-","","-","","-","","-"
"CCCCCCCCC(=O)OC1CCC2(C)C3CCC4(C)C(CCC4C3CC=C2C1)C(C)CCCC(C)C","-","-","-","Cholesteryl pelargonate","74.0 - 77.0","?C","348.5","K","","","","","","-","","-","","-","","-"
"BrCC=CC1=CC=CC=C1","-","-","-","Cinnamyl bromide","26.0 - 32.0","?C","302.0","K","","","","","","-","","-","","-","","-"
"OC(=O)C1=COC(=O)C=C1","-","-","-","Coumalic acid","203.0 - 205.0","?C","477.0","K","","","","","","-","","-","","-","","-"
"C1CCCCCC2OC2CCCC1","-","-","-","Cyclododecane epoxide isomers","-7.0","?C","266.0","K","","","","","","-","","-","","-","","-"
"C1CCCCCC=CCCCC1","-","-","-","CYCLODODECENE","-9.0","?C","264.0","K","","","","","","-","","-","","-","","-"
"NC1CCCCCCCCCCC1","-","-","-","Cyclododecylamine","28.0 - 30.0","?C","302.0","K","","","","","","-","","-","","-","","-"
"OC1CCCC(O)C1","-","-","-","1,3-CYCLOHEXANEDIOL","30.0","?C","303.0","K","","","","","","-","","-","","-","","-"
"C1CCC2OC2C1","-","-","-","Cyclohexene oxide","-40.0","?C","233.0","K","","","","","","-","","-","","-","","-"
"SC1CCCCC1","-","-","-","Cyclohexyl mercaptan","-30.0","?C","243.0","K","","","","","","-","","-","","-","","-"
"C1CCCC2OC2CC1","-","-","-","Cyclooctene oxide","53.0 - 56.0","?C","327.5","K","","","","","","-","","-","","-","","-"
"OC(=O)C1CCCC1","-","-","-","Cyclopentanecarboxylic acid","4.0","?C","277.0","K","","","","","","-","","-","","-","","-"
"OCC1CC1","-","-","-","Cyclopropyl carbinol","-60.0","?C","213.0","K","","","","","","-","","-","","-","","-"
"FC1=CC=C(C=C1)C(=O)C1CC1","-","-","-","Cyclopropyl 4-fluorophenyl ketone","-15.0","?C","258.0","K","","","","","","-","","-","","-","","-"
"CCCCN(CCCC)CCCN","-","-","-","3-(Di-n-butylamino)propylamine","-50.0","?C","223.0","K","","","","","","-","","-","","-","","-"
"Cl[Si](Cl)(C1=CC=CC=C1)C1=CC=CC=C1","-","-","-","DICHLORODIPHENYLSILANE","-22.0","?C","251.0","K","","","","","","-","","-","","-","","-"
"ClCCCCCCCl","-","-","-","1,6-DICHLOROHEXANE","-13.0","?C","260.0","K","","","","","","-","","-","","-","","-"
"CCOC(=O)CC(C(C)=O)C(=O)OCC","-","-","-","Diethyl acetylsuccinate","-8.0","?C","265.0","K","","","","","","-","","-","","-","","-"
"CCN(CC)CC(C)O","-","-","-","1-Diethylamino-2-propanol","13.5","?C","286.5","K","","","","","","-","","-","","-","","-"
"CCN(CC)CCCN","-","-","-","3-Diethylaminopropylamine","-60.0","?C","213.0","K","","","","","","-","","-","","-","","-"
"CCN(CC)CCO","-","-","-","N,N-Diethylethanolamine","-70.0","?C","203.0","K","","","","","","-","","-","","-","","-"
"CN(C)CCN","-","-","-","unsym-Dimethylethylenediamine","-70.0","?C","203.0","K","","","","","","-","","-","","-","","-"
"COC(=O)CCCC(=O)OC","-","-","-","DIMETHYL GLUTARATE","-37.0","?C","236.0","K","","","","","","-","","-","","-","","-"
"CC1(C)CC(=O)OC(=O)C1","-","-","-","3,3-Dimethylglutaric anhydride","122.0 - 126.0","?C","397.0","K","","","","","","-","","-","","-","","-"
"CN1CCN(C)CC1","-","-","-","N,N'-dimethylpiperazine","-1.0","?C","272.0","K","","","","","","-","","-","","-","","-"
"CN(C)S(Cl)(=O)=O","-","-","-","Dimethylsulfamoyl chloride","-13.0","?C","260.0","K","","","","","","-","","-","","-","","-"
"NCC(C1=CC=CC=C1)C1=CC=CC=C1","-","-","-","2,2-Diphenylethylamine","43.0 - 49.0","?C","319.0","K","","","","","","-","","-","","-","","-"
"CCCCCCCCCCCCSCCCCCCCCCCCC","-","-","-","n-Dodecyl sulfide","36.0 - 43.0","?C","312.5","K","","","","","","-","","-","","-","","-"
"CCOC(=O)C=C(C)N","-","-","-","Ethyl 3-aminocrotonate","33.0 - 35.0","?C","307.0","K","","","","","","-","","-","","-","","-"
"CCC(CC)CO","-","-","-","2-ethyl-1-butanol","-15.0","?C","258.0","K","","","","","","-","","-","","-","","-"
"CCOC(=O)C(Cl)C(C)=O","-","-","-","Ethyl 2-chloroacetoacetate","-80.0","?C","193.0","K","","","","","","-","","-","","-","","-"
"CCCCC(CC)C(O)=O","-","-","-","2-ETHYLHEXANOIC ACID","-59.0","?C","214.0","K","","","","","","-","","-","","-","","-"
"CCOC(=O)C1=C(C)OC(=O)C=C1C","-","-","-","Ethyl isodehydroacetate","17.0 - 18.0","?C","290.5","K","","","","","","-","","-","","-","","-"
"CCOC(=O)C(C)O","-","-","-","Ethyl L(-)-lactate","-26.0","?C","247.0","K","","","","","","-","","-","","-","","-"
"CCOC(=O)CS","-","-","-","Ethyl 2-mercaptoacetate","-80.0","?C","193.0","K","","","","","","-","","-","","-","","-"
"CCOC(=O)C(C)C(C)=O","-","-","-","Ethyl 2-methylacetoacetate","-45.0","?C","228.0","K","","","","","","-","","-","","-","","-"
"CCC1=CC=C(C=C1)[N+]([O-])=O","-","-","-","4-ETHYLNITROBENZENE","-12.0","?C","261.0","K","","","","","","-","","-","","-","","-"
"CCOC(=O)N1CCNCC1","-","-","-","Ethyl N-piperazinecarboxylate","120.0","?C","393.0","K","","","","","","-","","-","","-","","-"
"CCN1CCCCC1","-","-","-","1-Ethylpiperidine","-20.0","?C","253.0","K","","","","","","-","","-","","-","","-"
"CCC1=C(C)C=CC=C1","-","-","-","O-ETHYLTOLUENE","-17.0","?C","256.0","K","","","","","","-","","-","","-","","-"
"CCOC(=O)C(F)(F)F","-","-","-","Ethyl 2,2,2-trifluoroacetate","-78.0","?C","195.0","K","","","","","","-","","-","","-","","-"
"CCOC(=O)CC(=O)C(F)(F)F","-","-","-","Ethyl 4,4,4-trifluoroacetoacetate","-39.0","?C","234.0","K","","","","","","-","","-","","-","","-"
"CC(=O)C1=CC=C(F)C=C1","-","-","-","4'-Fluoroacetophenone","4.0","?C","277.0","K","","","","","","-","","-","","-","","-"
"NC1=C(F)C=CC=C1","-","-","-","2-Fluoroaniline","-29.0","?C","244.0","K","","","","","","-","","-","","-","","-"
"FC1=CC=C(CCl)C=C1","-","-","-","4-Fluorobenzyl chloride","-18.0","?C","255.0","K","","","","","","-","","-","","-","","-"
"OCC1CO1","-","-","-","GLYCIDOL","-54.0","?C","219.0","K","","","","","","-","","-","","-","","-"
"NCC(O)=O","-","-","-","Glycine","182.0","?C","455.0","K","","","","","","-","","-","","-","","-"
"C[Si](C)(C)N[Si](C)(C)C","-","-","-","1,1,1,3,3,3-Hexamethyldisilazane","-78.0","?C","195.0","K","","","","","","-","","-","","-","","-"
"C1CCCNCC1","-","-","-","HEXAMETHYLENEIMINE","-37.0","?C","236.0","K","","","","","","-","","-","","-","","-"
"SCCCCCCS","-","-","-","1,6-HEXANEDITHIOL","-21.0","?C","252.0","K","","","","","","-","","-","","-","","-"
"OCCN1CCNCC1","-","-","-","N-(2-Hydroxyethyl)piperazine","-38.5","?C","234.5","K","","","","","","-","","-","","-","","-"
"CC(=O)CC(C)(C)O","-","-","-","4-HYDROXY-4-METHYL-2-PENTANONE","-42.8","?C","230.2","K","","","","","","-","","-","","-","","-"
"C1CC2=C(N1)C=CC=C2","-","-","-","indoline","-21.0","?C","252.0","K","","","","","","-","","-","","-","","-"
"CCN(CC)CCC#N","-","-","-","3-(Diethylamino)propionitrile","-64.0","?C","209.0","K","","","","","","-","","-","","-","","-"
"FC(F)(F)C(F)(F)C(F)(F)C(F)(F)C(F)(F)C(F)(F)F","-","-","-","Perfluoro-compound FC-72","-4.0","?C","269.0","K","","","","","","-","","-","","-","","-"
"CCCCCCCCCCCCCCCCC1=CC=CC=C1","-","-","-","Hexadecylbenzene","25.0 - 29.0","?C","300.0","K","","","","","","-","","-","","-","","-"
"OCCS","-","-","-","2-mercaptoethanol","-100.0","?C","173.0","K","","","","","","-","","-","","-","","-"
"CC(C)=CC(C)=O","-","-","-","MESITYL OXIDE","-53.0","?C","220.0","K","","","","","","-","","-","","-","","-"
"COC(C)CCO","-","-","-","3-METHOXY-1-BUTANOL","-85.0","?C","188.0","K","","","","","","-","","-","","-","","-"
"CC1CCCCC1=O","-","-","-","2-methylcyclohexanone","-14.0","?C","259.0","K","","","","","","-","","-","","-","","-"