"SMILES","CASRN","EXTERNALID","N","NAME","Melting Point","UNIT {Melting Point}","Melting Point {measured, converted}","UNIT {Melting Point}","Dataset","comment (property)","comment (chemical)","measurement method","Pressure","UNIT {Pressure}","Som set numeric condition","UNIT {Som set numeric condition}","Resp set numeric condition","UNIT {Resp set numeric condition}","Quality code","UNIT {Quality code}"
"O=C1NC2=C(C=CC=C2)C(=O)O1","-","-","-","Isatoic anhydride","233.0","?C","506.0","K","","","","","","-","","-","","-","","-"
"CC1(C)OC2C(CO)OC(C2O1)N1C=NC2=C1N=CN=C2N","-","-","-","2',3'-O-Isopropylideneadenosine","221.0 - 222.0","?C","494.5","K","","","","","","-","","-","","-","","-"
"CC1(C)OC2C(CO)OC(C2O1)N1C=CC(=O)NC1=O","-","-","-","2',3'-O-Isopropylideneuridine","163.0 - 166.0","?C","437.5","K","","","","","","-","","-","","-","","-"
"CC(C)CCCC(C)C1CCC2C3CC(=O)C4CC(O)CCC4(C)C3CCC12C","-","-","-","6-Ketocholestanol","140.0 - 142.0","?C","414.0","K","","","","","","-","","-","","-","","-"
"OC(=O)CCC(=O)CCC(O)=O","-","-","-","4-Ketopimelic acid","142.0 - 144.0","?C","416.0","K","","","","","","-","","-","","-","","-"
"OC(CN1C=CN=C1)C1=C(Cl)C=C(Cl)C=C1","-","-","-","alpha-(2,4-Dichlorophenyl)-1H-imidazole-1-ethanol","134.0 - 138.0","?C","409.0","K","","","","","","-","","-","","-","","-"
"[O-][N+](=O)C1=CC=CC2=C1NC=C2","-","-","-","7-NITROINDOLE","95.0 - 98.0","?C","369.5","K","","","","","","-","","-","","-","","-"
"OC(=O)CN(CC(O)=O)C1=CC=CC=C1OCCOC1=CC=CC=C1N(CC(O)=O)CC(O)=O","-","-","-","1,2-Bis(2-aminophenoxy)-ethane-N,N,N'N'-tetraacetic acid","177.0 - 179.0","?C","451.0","K","","","","","","-","","-","","-","","-"
"COC(=O)C1=CC=C(C=C1)S(=O)(=O)C1=CC=C(C=C1)C(=O)OC","-","-","-","4,4'-Sulfonylbis-(methylbenzoate)","193.0 - 200.0","?C","469.5","K","","","","","","-","","-","","-","","-"
"OC(=O)C1=CC(=O)C2=C(O1)C=CC=C2","-","-","-","4-Oxo-4H-1-benzopyran-2-carboxylic acid","260.0","?C","533.0","K","","","","","","-","","-","","-","","-"
"N#CCN=C(C1=CC=CC=C1)C1=CC=CC=C1","-","-","-","N-(Diphenylmethylene)aminoacetonitrile","83.0 - 86.0","?C","357.5","K","","","","","","-","","-","","-","","-"
"CC(=O)NC1=NC=CS1","-","-","-","2-Acetylaminothiazole","204.0 - 208.0","?C","479.0","K","","","","","","-","","-","","-","","-"
"NC1=NC(N)=NC(N)=N1","-","-","-","MELAMINE","354.0","?C","627.0","K","","","","","","-","","-","","-","","-"
"SC1=NC2=C(O1)C=CC=C2","-","-","-","2-Mercaptobenzoxazole","192.0 - 195.0","?C","466.5","K","","","","","","-","","-","","-","","-"
"COC1=CC=C(C=C1)S(Cl)(=O)=O","-","-","-","4-Methoxybenzenesulfonyl chloride","40.0 - 42.0","?C","314.0","K","","","","","","-","","-","","-","","-"
"COC1=CC(C=CC(O)=O)=CC=C1","-","-","-","m-Methoxycinnamic acid","116.0 - 119.0","?C","390.5","K","","","","","","-","","-","","-","","-"
"COC1=CC2=C(NC=C2CC(O)=O)C=C1","-","-","-","5-Methoxyindole-3-acetic acid","148.0 - 150.0","?C","422.0","K","","","","","","-","","-","","-","","-"
"COC1=CC2=C(NC(=C2)C(O)=O)C=C1","-","-","-","5-Methoxyindole-2-carboxylic acid","197.0 - 201.0","?C","472.0","K","","","","","","-","","-","","-","","-"
"COC1=C2C=CC=CC2=C(C=C1)[N+]([O-])=O","-","-","-","1-Methoxy-4-nitronaphthalene","81.0 - 85.0","?C","356.0","K","","","","","","-","","-","","-","","-"
"CC1=CC=C(C=CC(O)=O)C=C1","-","-","-","4-Methylcinnamic acid","198.0 - 201.0","?C","472.5","K","","","","","","-","","-","","-","","-"
"CN(CC(O)=O)CC(O)=O","-","-","-","N-METHYLIMINODIACETIC ACID","218.0 - 221.0","?C","492.5","K","","","","","","-","","-","","-","","-"
"CC(C(O)=O)C(O)=O","-","-","-","Methylmalonic acid","129.0 - 136.0","?C","405.5","K","","","","","","-","","-","","-","","-"
"CC1=NC(C=O)=CC=C1","-","-","-","6-Methyl-2-pyridinecarboxaldehyde","31.0 - 33.0","?C","305.0","K","","","","","","-","","-","","-","","-"
"CC1=CC2=C(NC=C2CC(N)C(O)=O)C=C1","-","-","-","5-methyl-DL-tryptophan","280.0 - 282.0","?C","554.0","K","","","","","","-","","-","","-","","-"
"OC(C(O)C(O)C(O)=O)C(O)C(O)=O","-","-","-","mucic acid","230.0","?C","503.0","K","","","","","","-","","-","","-","","-"
"OC(=O)C1=C(C=C2C=CC=CC2=C1)C(O)=O","-","-","-","2,3-Naphthalenedicarboxylic acid","238.0","?C","511.0","K","","","","","","-","","-","","-","","-"
"NC(=O)C1CCCNC1","-","-","-","Nipecotamide","102.0 - 108.0","?C","378.0","K","","","","","","-","","-","","-","","-"
"NC(CCCNC(=N)N[N+]([O-])=O)C(O)=O","-","-","-","Nitro-L-arginine","257.0","?C","530.0","K","","","","","","-","","-","","-","","-"
"[O-][N+](=O)C1=CC=CC2=NSN=C12","-","-","-","4-Nitro-2,1,3-benzothiadiazole","106.0 - 110.0","?C","381.0","K","","","","","","-","","-","","-","","-"
"[O-][N+](=O)C1=C(C=CC=O)C=CC=C1","-","-","-","3-(2-nitrophenyl)acrylaldehyde","125.0 - 129.0","?C","400.0","K","","","","","","-","","-","","-","","-"
"OC(=O)C=CC1=CC=C(C=C1)[N+]([O-])=O","-","-","-","p-Nitrocinnamic acid","289.0","?C","562.0","K","","","","","","-","","-","","-","","-"
"[O-][N+](=O)C1=CC2=C(NC=C2)C=C1","-","-","-","5-Nitroindole","205.0 - 207.0","?C","479.0","K","","","","","","-","","-","","-","","-"
"[O-][N+](=O)C1=CC2=C(NC(=O)C2=O)C=C1","-","-","-","5-Nitroisatin","251.0","?C","524.0","K","","","","","","-","","-","","-","","-"
"CC(=O)OC1=CC=C(C=C1)[N+]([O-])=O","-","-","-","4-Nitrophenyl acetate","76.0 - 79.0","?C","350.5","K","","","","","","-","","-","","-","","-"
"OCC1OC(OC2=C(C=CC=C2)[N+]([O-])=O)C(O)C(O)C1O","-","-","-","2-Nitrophenyl-beta-D-galactopyranoside","195.0","?C","468.0","K","","","","","","-","","-","","-","","-"
"OC(=O)C1=CC=C(C(O)=O)C(=C1)[N+]([O-])=O","-","-","-","Nitroterephthalic acid","270.0 - 272.0","?C","544.0","K","","","","","","-","","-","","-","","-"
"N1C2=C(C=CC=C2)C2=C1C=NC=C2","-","-","-","Norharman","199.0 - 201.0","?C","473.0","K","","","","","","-","","-","","-","","-"
"NC(=O)C(O)=O","-","-","-","OXAMIC ACID","210.0","?C","483.0","K","","","","","","-","","-","","-","","-"
"NNC(=O)C(N)=O","-","-","-","Oxamic hydrazide","216.0 - 218.0","?C","490.0","K","","","","","","-","","-","","-","","-"
"NC(=O)C(N)=O","-","-","-","OXAMIDE","491.0","?C","764.0","K","","","","","","-","","-","","-","","-"
"C1CC2=CC=C(CCC3=CC=C1C=C3)C=C2","-","-","-","[2.2]Paracyclophane","285.0 - 288.0","?C","559.5","K","","","","","","-","","-","","-","","-"
"CC(C)(S)C(N)C(O)=O","-","-","-","D(-)-Penicillamine","212.0","?C","485.0","K","","","","","","-","","-","","-","","-"
"C1=CC2=CC3=CC4=CC5=CC=CC=C5C=C4C=C3C=C2C=C1","-","-","-","PENTACENE","300.0","?C","573.0","K","","","","","","-","","-","","-","","-"
"O=C1OC(=O)C2=C3C1=CC=C1C4=C5C(=CC=C6C(=O)OC(=O)C(C=C4)=C56)C(C=C2)=C31","-","-","-","3,4,9,10-Perylenetetracarboxylic dianhydride","350.0","?C","623.0","K","","","","","","-","","-","","-","","-"
"NNC(=O)CC1=CC=CC=C1","-","-","-","Phenylacetic acid hydrazide","115.0 - 117.0","?C","389.0","K","","","","","","-","","-","","-","","-"
"NC(CC1=CC=CC=C1)C(O)=O","-","-","-","L-phenylalanine","270.0 - 275.0","?C","545.5","K","","","","","","-","","-","","-","","-"
"N1C2=CC=CC=C2N=C1C1=CC=CC=C1","-","-","-","2-PHENYLBENZIMIDAZOLE","293.0 - 296.0","?C","567.5","K","","","","","","-","","-","","-","","-"
"OC(=O)C1CC1C1=CC=CC=C1","-","-","-","trans-2-Phenylcyclopropane-1-carboxylic acid","86.0 - 92.0","?C","362.0","K","","","","","","-","","-","","-","","-"
"OC(=O)C=CC1=CC=C(C=CC(O)=O)C=C1","-","-","-","p-Phenylenediacrylic acid","300.0","?C","573.0","K","","","","","","-","","-","","-","","-"
"O=C1C=CC(=O)N1C1=CC=C(C=C1)N1C(=O)C=CC1=O","-","-","-","N,N'-p-Phenylenedimaleimide","300.0","?C","573.0","K","","","","","","-","","-","","-","","-"
"NC(C(O)=O)C1=CC=CC=C1","-","-","-","D(-)-alpha-Phenylglycine","302.0","?C","575.0","K","","","","","","-","","-","","-","","-"
"O=C1CC(=NO1)C1=CC=CC=C1","-","-","-","3-phenyl-4,5-dihydroisoxazol-5-one","150.0 - 154.0","?C","425.0","K","","","","","","-","","-","","-","","-"
"OC1=CC2=C(C=C1O)C(C1=CC=CC=C1)=C1C=C(O)C(=O)C=C1O2","-","-","-","9-Phenyl-2,3,7-trihydroxy-6-fluorone","300.0","?C","573.0","K","","","","","","-","","-","","-","","-"
"OC(=O)C1=C(C=CC=C1)C(O)=O","-","-","-","phthalic acid","200.0 - 205.0","?C","475.5","K","","","","","","-","","-","","-","","-"
"CC(=O)OC1CCC2(C)C3CCC4(C)C(CCC4C(C)=O)C3CC=C2C1","-","-","-","PREGNENOLONE ACETATE","149.0 - 152.0","?C","423.5","K","","","","","","-","","-","","-","","-"
"O=C1N(OCC#C)C(=O)C2=C1C=CC=C2","-","-","-","N-(Propargyloxy)phthalimide","149.0 - 152.0","?C","423.5","K","","","","","","-","","-","","-","","-"
"N=C1NC(=O)CS1","-","-","-","Pseudothiohydantoin","249.0","?C","522.0","K","","","","","","-","","-","","-","","-"
"OC(=O)C1=NC=CN=C1","-","-","-","2-Pyrazinecarboxylic acid","222.0 - 225.0","?C","496.5","K","","","","","","-","","-","","-","","-"
"OC(=O)C1=NC=CN=C1C(O)=O","-","-","-","Pyrazine-2,3-dicarboxylic acid","188.0","?C","461.0","K","","","","","","-","","-","","-","","-"
"OC(=O)C1=CC=CC(=N1)C(O)=O","-","-","-","2,6-Pyridinedicarboxylic acid","248.0 - 250.0","?C","522.0","K","","","","","","-","","-","","-","","-"
"OC(=O)C1=C(C=NC=C1)C(O)=O","-","-","-","3,4-Pyridinedicarboxylic acid","262.0","?C","535.0","K","","","","","","-","","-","","-","","-"
"O=C1OC(=O)C2=NC=CC=C12","-","-","-","2,3-Pyridinedicarboxylic anhydride","134.0 - 138.0","?C","409.0","K","","","","","","-","","-","","-","","-"
"OS(=O)(=O)C1=CC=CN=C1","-","-","-","3-PYRIDINESULFONIC ACID","300.0","?C","573.0","K","","","","","","-","","-","","-","","-"
"OCC1OC(O)C(O)C1O","-","-","-","D(-)-Ribose","88.0 - 92.0","?C","363.0","K","","","","","","-","","-","","-","","-"
"ON=C(O)C1=C(O)C=CC=C1","-","-","-","Salicylhydroxamic acid","177.0 - 185.0","?C","454.0","K","","","","","","-","","-","","-","","-"
"NC(CO)C(O)=O","-","-","-","DL-Serine","240.0","?C","513.0","K","","","","","","-","","-","","-","","-"
"OC1=CC=C2OCOC2=C1","-","-","-","Sesamol","63.0 - 65.0","?C","337.0","K","","","","","","-","","-","","-","","-"
"O1C(C1C1=CC=CC=C1)C1=CC=CC=C1","-","-","-","trans-Stilbene oxide","67.0 - 70.0","?C","341.5","K","","","","","","-","","-","","-","","-"
"COC(=O)C(CSCC1=CC=CC=C1)NC(C)=O","-","-","-","N-Acetyl-S-benzyl-L-cysteine methyl ester","67.0 - 73.0","?C","343.0","K","","","","","","-","","-","","-","","-"
"CC1(C)NC(=CC(=O)C2=CC=CC=C2)C(C)(C)N1O","-","-","-","2,2,5,5-Tetramethyl-4-phenacetyliden-imidazolidine-1-oxyl","178.0 - 184.0","?C","454.0","K","","","","","","-","","-","","-","","-"
"CC1(C)N=C(C2=CC=CC=C2)C(C)(C)N1O","-","-","-","2,2,5,5-Tetramethyl-4-phenyl-3-imidazoline-1-oxyl","78.6 - 80.4","?C","352.5","K","","","","","","-","","-","","-","","-"
"CCC1N(O)C(C)(C)C(C(O)=O)=[N+]1[O-]","-","-","-","4-Carboxy-2,2,5,5-tetramethyl-3-imidazoline-3-oxide-1-oxyl","98.8 - 99.0","?C","371.9","K","","","","","","-","","-","","-","","-"
"NC1=NC(CC(O)=O)=CS1","-","-","-","(2-Aminothiazole-4-yl)acetic acid","117.5 - 118.0","?C","390.8","K","","","","","","-","","-","","-","","-"
"CC1CN(NC1=O)C1=CC=CC=C1","-","-","-","1-Phenyl-4-methyl-3-pyrazolidone","133.0 - 136.0","?C","407.5","K","","","","","","-","","-","","-","","-"
"COC1=C(C=C(Cl)C(N)=C1)C(O)=O","-","-","-","4-amino-5-chloro-2-methoxybenzoic acid","206.0 - 210.0","?C","481.0","K","","","","","","-","","-","","-","","-"
"CC1=CC=C(C=C1)S(=O)(=O)OCC1COC(C)(C)O1","-","-","-","(S)-(+)-2,2-Dimethyl-4-(hydroxymethyl)-1,3-dioxolane-p-toluenesulfonate","29.0 - 31.0","?C","303.0","K","","","","","","-","","-","","-","","-"
"CC(C)CC(C)(N)C(O)=O","-","-","-","DL-alpha-Methylleucine","300.0","?C","573.0","K","","","","","","-","","-","","-","","-"
"CC(C)(C)C(N)C(O)=O","-","-","-","DL-tert-Butylglycine","300.0","?C","573.0","K","","","","","","-","","-","","-","","-"
"NC(CSSCC(N)C(O)=O)C(O)=O","-","-","-","D-Cystine","260.0","?C","533.0","K","","","","","","-","","-","","-","","-"
"C1CCC(CC1)N1CCNCC1","-","-","-","1-Cyclohexylpiperazine","28.0 - 32.0","?C","303.0","K","","","","","","-","","-","","-","","-"
"COC1=CC2=C(C=C1)C=C(C=C2)C(C)=O","-","-","-","2-Acetyl-6-methoxynaphthalene","108.0 - 109.0","?C","381.5","K","","","","","","-","","-","","-","","-"
"OC(=O)CCC(=O)C1=CC=C(Cl)C=C1","-","-","-","3-(4-Chlorobenzoyl)propionic acid","129.0 - 132.0","?C","403.5","K","","","","","","-","","-","","-","","-"
"OC(=O)C1(CC1)C1=CC=C(Cl)C=C1Cl","-","-","-","1-(2,4-Dichlorophenyl)cyclopropanecarboxylic acid","140.0 - 147.0","?C","416.5","K","","","","","","-","","-","","-","","-"
"ClC1=CC=C(C(Cl)=C1)C1(CC1)C#N","-","-","-","1-(2,4-Dichlorophenyl)-1-cyclopropyl cyanide","81.0 - 85.0","?C","356.0","K","","","","","","-","","-","","-","","-"
"[O-][N+](=O)C1=CC(=CC=C1Cl)C(=O)C1CC1","-","-","-","4-Chloro-3-nitrophenyl cyclopropyl ketone","78.0 - 80.0","?C","352.0","K","","","","","","-","","-","","-","","-"
"CC1=CC=C(C=C1)C(=O)CCCCl","-","-","-","4-Chloro-4'-methylbutyrophenone","31.5","?C","304.5","K","","","","","","-","","-","","-","","-"
"O=C1NC2=C(C=CC=C2)N1C1=CCNCC1","-","-","-","1,3-Dihydro-1-(1,2,3,6-tetrahydro-4-pyridinyl)-2H-benzimidazole-2-one","195.0 - 200.0","?C","470.5","K","","","","","","-","","-","","-","","-"
"CCCCNC(=O)NCCCC","-","-","-","Dibutylurea","74.0 - 75.0","?C","347.5","K","","","","","","-","","-","","-","","-"
"ClC1=C(Cl)C(=O)C(=O)C(Cl)=C1Cl","-","-","-","Tetrachloro-O-benzoquinone","125.0 - 129.0","?C","400.0","K","","","","","","-","","-","","-","","-"
"C1C(=C(C(=C1C1=CC=CC=C1)C1=CC=CC=C1)C1=CC=CC=C1)C1=CC=CC=C1","-","-","-","1,2,3,4-Tetraphenyl-1,3-cyclopentadiene","179.0 - 182.0","?C","453.5","K","","","","","","-","","-","","-","","-"
"O=C1C(=C(C(=C1C1=CC=CC=C1)C1=CC=CC=C1)C1=CC=CC=C1)C1=CC=CC=C1","-","-","-","Tetraphenylcyclopentadienone","217.0 - 222.0","?C","492.5","K","","","","","","-","","-","","-","","-"
"NC(=S)C1=CC=CN=C1","-","-","-","THIONICOTINAMIDE","185.0 - 190.0","?C","460.5","K","","","","","","-","","-","","-","","-"
"OC(=O)C1=C(S)C=CC=C1","-","-","-","Thiosalicylic acid","164.0 - 169.0","?C","439.5","K","","","","","","-","","-","","-","","-"
"OC1=CC=C(C=C1)C(=O)C1=CC=C(O)C=C1O","-","-","-","2,4,4'-Trihydroxybenzophenone","197.0 - 198.0","?C","470.5","K","","","","","","-","","-","","-","","-"
"OC1=NC(O)=C(O)C=N1","-","-","-","2,4,5-Trihydroxypyrimidine","330.0","?C","603.0","K","","","","","","-","","-","","-","","-"
"COC1=CC(OC)=C(C=CC(O)=O)C=C1OC","-","-","-","trans-2,4,5-Trimethoxycinnamic acid","164.0 - 167.0","?C","438.5","K","","","","","","-","","-","","-","","-"
"OC(=O)C(C1=CC=CC=C1)(C1=CC=CC=C1)C1=CC=CC=C1","-","-","-","Triphenylacetic acid","268.0 - 269.0","?C","541.5","K","","","","","","-","","-","","-","","-"
"SC1=NC(S)=NC(S)=N1","-","-","-","Trithiocyanuric acid","300.0","?C","573.0","K","","","","","","-","","-","","-","","-"
"OC(=O)CCCCCCCCCCCC(O)=O","-","-","-","1,11-Undecanedicarboxylic acid","112.0 - 114.0","?C","386.0","K","","","","","","-","","-","","-","","-"
"CCOC(=O)C(C)=P(C1=CC=CC=C1)(C1=CC=CC=C1)C1=CC=CC=C1","-","-","-","(Carbethoxyethylidene)triphenylphosphorane","157.0 - 159.0","?C","431.0","K","","","","","","-","","-","","-","","-"
"NC(=O)C1=C(F)C(F)=C(N)C(F)=C1F","-","-","-","4-Amino-2,3,5,6-tetrafluorobenzamide","183.0 - 187.0","?C","458.0","K","","","","","","-","","-","","-","","-"
"CC1=C(C)C=C2N=C3C(=O)NC(=O)NC3=NC2=C1","-","-","-","Lumichrome","300.0","?C","573.0","K","","","","","","-","","-","","-","","-"
"SC1=NNC=N1","-","-","-","1H-1,2,4-Triazole-3-thiol","221.0 - 224.0","?C","495.5","K","","","","","","-","","-","","-","","-"
"COC1=CC(C(=O)CBr)=C(OC)C=C1","-","-","-","2-Bromo-2',5'-dimethoxyacetophenone","83.0 - 88.0","?C","358.5","K","","","","","","-","","-","","-","","-"
"O=C1C=CC(=O)N1C1=C(C=CC=C1)N1C(=O)C=CC1=O","-","-","-","N,N'-o-Phenylenedimaleimide","245.0 - 248.0","?C","519.5","K","","","","","","-","","-","","-","","-"
"NC1=NC=NC2=C1N=CN2","-","-","-","adenine","360.0 - 365.0","?C","635.5","K","","","","","","-","","-","","-","","-"
"BrCC(=O)C1=CC=C2C=CC=CC2=C1","-","-","-","alpha-Bromo-2'-acetonaphthone","82.0 - 85.0","?C","356.5","K","","","","","","-","","-","","-","","-"
"COC1=CC2=C(NC(C)=C2CC(O)=O)C=C1","-","-","-","5-Methoxy-2-methyl-3-indoleacetic acid","162.0 - 165.0","?C","436.5","K","","","","","","-","","-","","-","","-"
"OC(=O)C1=C(O)N=C2C=CC=CC2=N1","-","-","-","3-Hydroxy-2-quinoxalinecarboxylic acid","267.0 - 268.0","?C","540.5","K","","","","","","-","","-","","-","","-"
"ClC1=CC2=C(C=C1)N=C(Cl)C(Cl)=N2","-","-","-","2,3,6-Trichloroquinoxaline","143.0 - 148.0","?C","418.5","K","","","","","","-","","-","","-","","-"
"O=C1OC(=O)C2C1C1CCC2C=C1","-","-","-","endo-bicyclo[2.2.2]oct-5-ene-2,3-dicarboxylic anhydride","144.0 - 148.0","?C","419.0","K","","","","","","-","","-","","-","","-"
"OC1CCCC2=C(O)C=CC=C12","-","-","-","1,5-Dihydroxy-1,2,3,4-tetrahydronaphthalene","132.0 - 134.0","?C","406.0","K","","","","","","-","","-","","-","","-"
"OC1=NC(O)=C2N=CNC2=N1","-","-","-","Xanthine","300.0","?C","573.0","K","","","","","","-","","-","","-","","-"
"OC(=O)C1=C(O)C2=CC=CC=C2C=C1","-","-","-","1-Hydroxy-2-naphthoic acid","199.0 - 205.0","?C","475.0","K","","","","","","-","","-","","-","","-"
"NC1=C2C=CC=CC2=C(C=C1O)S(O)(=O)=O","-","-","-","4-Amino-3-hydroxy-1-naphthalenesulfonic acid","295.0","?C","568.0","K","","","","","","-","","-","","-","","-"
"NC1=NC2=C(N=CN2)C(Cl)=N1","-","-","-","2-Amino-6-chloropurine","300.0","?C","573.0","K","","","","","","-","","-","","-","","-"
"NC1=CC=C(C=C1)S(O)(=O)=O","-","-","-","SULFANILIC ACID","365.0","?C","638.0","K","","","","","","-","","-","","-","","-"
"OC(CC1=CC=CC=C1)C(O)=O","-","-","-","L(-)-3-Phenyllactic acid","121.0 - 125.0","?C","396.0","K","","","","","","-","","-","","-","","-"
"NCCNC1=CC=C(C=N1)[N+]([O-])=O","-","-","-","2-(2-Aminoethylamino)-5-nitropyridine","126.0 - 128.0","?C","400.0","K","","","","","","-","","-","","-","","-"
"OC(=O)C(=O)CC1=CC=C(O)C=C1","-","-","-","4-Hydroxyphenylpyruvic acid","219.0 - 220.0","?C","492.5","K","","","","","","-","","-","","-","","-"
"CC1=C(O)C=CC(=C1)C1(OS(=O)(=O)C2=C1C=CC=C2)C1=CC(C)=C(O)C=C1","-","-","-","Cresol Red","290.0","?C","563.0","K","","","","","","-","","-","","-","","-"
"OC1=CC=C(C=C1)C1(OS(=O)(=O)C2=CC=CC=C12)C1=CC=C(O)C=C1","-","-","-","PHENOL RED","300.0","?C","573.0","K","","","","","","-","","-","","-","","-"
"CC(C)C1=CC(=C(C)C=C1O)C1(OS(=O)(=O)C2=CC=CC=C12)C1=CC(C(C)C)=C(O)C=C1C","-","-","-","Thymol Blue","221.0","?C","494.0","K","","","","","","-","","-","","-","","-"
"CN(C)C1=CC=C(C=C2SC(=S)NC2=O)C=C1","-","-","-","5-(4-Dimethylaminobenzylidene)rhodanine","285.0 - 288.0","?C","559.5","K","","","","","","-","","-","","-","","-"
"OC1=C(C=CC2=C1C=CC=C2)N=O","-","-","-","2-Nitroso-1-Naphthol","156.0 - 158.0","?C","430.0","K","","","","","","-","","-","","-","","-"
"CC(=O)OCC1OC(C(OC(C)=O)C1OC(C)=O)N1N=CC(=O)NC1=O","-","-","-","6-Azauridine 2',3',5'-triacetate","99.0 - 101.0","?C","373.0","K","","","","","","-","","-","","-","","-"
"OC(=O)C1=CC(C(O)=O)=C(Br)C=C1","-","-","-","4-Bromoisophthalic acid","297.0 - 299.0","?C","571.0","K","","","","","","-","","-","","-","","-"
"OC(=O)C1=CC=C(C(O)=O)C(Br)=C1","-","-","-","2-Bromoterephthalic acid","295.0 - 297.0","?C","569.0","K","","","","","","-","","-","","-","","-"
"COC1=CC2=C(NC=C2CC(N)C(O)=O)C=C1","-","-","-","DL-5-methoxytryptophan","258.0 - 261.0","?C","532.5","K","","","","","","-","","-","","-","","-"
"[O-][N+](=O)C1=C(C=C(Cl)C=C1)C#N","-","-","-","5-Chloro-2-nitrobenzonitrile","89.0 - 94.0","?C","364.5","K","","","","","","-","","-","","-","","-"
"CC(=O)NCCCCC(N)C(O)=O","-","-","-","N-epsilon-Acetyl-L-lysine","250.0","?C","523.0","K","","","","","","-","","-","","-","","-"
"OC1=CC=CN=C1Br","-","-","-","2-Bromo-3-pyridinol","185.0 - 188.0","?C","459.5","K","","","","","","-","","-","","-","","-"
"CC(=O)NC1=CC=C(C=C1)C1=CC=C(F)C=C1","-","-","-","4'-(4-Fluorophenyl)acetanilide","205.0 - 207.0","?C","479.0","K","","","","","","-","","-","","-","","-"
"[O-][N+](=O)C1=CC(C(=O)C2=CC=CC=C2)=C(Cl)C=C1","-","-","-","2-Chloro-5-nitrobenzophenone","83.0 - 86.0","?C","357.5","K","","","","","","-","","-","","-","","-"
"CC1=NC(I)=C(O)C=C1","-","-","-","6-Iodo-2-picolin-5-ol","195.0 - 201.0","?C","471.0","K","","","","","","-","","-","","-","","-"