"SMILES","CASRN","EXTERNALID","N","NAME","Melting Point","UNIT {Melting Point}","Melting Point {measured, converted}","UNIT {Melting Point}","Dataset","comment (property)","comment (chemical)","measurement method","Pressure","UNIT {Pressure}","Som set numeric condition","UNIT {Som set numeric condition}","Resp set numeric condition","UNIT {Resp set numeric condition}","Quality code","UNIT {Quality code}"
"CC1=CC(OC2=NC=C(N)C=C2)=CC(C)=C1Cl","-","-","-","6-(4-Chloro-3,5-dimethylphenoxy)pyridin-3-amine","96.0 - 98.0","?C","370.0","K","","","","","","-","","-","","-","","-"
"N#CC1=CC=CC=C1N1CCCCC1","-","-","-","2-Piperidinobenzonitrile","45.0 - 48.0","?C","319.5","K","","","","","","-","","-","","-","","-"
"NC(=O)C1=C(C=CC=C1)N1CCCCC1","-","-","-","2-Piperidinobenzamide","115.0 - 117.5","?C","389.2","K","","","","","","-","","-","","-","","-"
"COC1=CC=C(OC2=CC=C(C=C2[N+]([O-])=O)C(F)(F)F)C=C1","-","-","-","1-(4-Methoxyphenoxy)-2-nitro-4-(trifluoromethyl)benzene","45.0 - 47.0","?C","319.0","K","","","","","","-","","-","","-","","-"
"CSC1=CC=C(OC2=C(C=C(C=C2)C(F)(F)F)[N+]([O-])=O)C=C1","-","-","-","1-[4-(methylthio)phenoxy]-2-nitro-4-(trifluoromethyl)benzene","41.0 - 43.0","?C","315.0","K","","","","","","-","","-","","-","","-"
"CC1=NNC2=C1C(C)=CC(=O)O2","-","-","-","3,4-Dimethyl-1,6-dihydropyrano[2,3-c]pyrazol-6-one","251.0 - 252.0","?C","524.5","K","","","","","","-","","-","","-","","-"
"OC(=O)C1=CC=CN=C1SCC=C","-","-","-","2-(Allylthio)nicotinic acid","147.0 - 149.0","?C","421.0","K","","","","","","-","","-","","-","","-"
"CCCC(=O)C1=CC2=CC(Br)=CC(Br)=C2OC1=O","-","-","-","6,8-dibromo-3-butyryl-2H-chromen-2-one","200.0 - 202.0","?C","474.0","K","","","","","","-","","-","","-","","-"
"CCCC(=O)C1=CC2=C(OC1=O)C=CC=C2","-","-","-","3-butyryl-2H-chromen-2-one","93.0 - 94.0","?C","366.5","K","","","","","","-","","-","","-","","-"
"OC(=O)C1=CC=C(SC2=CC=C(Cl)C=C2)C(=C1)[N+]([O-])=O","-","-","-","4-[(4-Chlorophenyl)thio]-3-nitrobenzoic acid","217.0 - 220.5","?C","491.8","K","","","","","","-","","-","","-","","-"
"CC1=CC(Cl)=C(C)C=C1SC1=CC=C(C=C1[N+]([O-])=O)C(O)=O","-","-","-","4-[(4-Chloro-2,5-dimethylphenyl)thio]-3-nitrobenzoic acid","243.0 - 248.0","?C","518.5","K","","","","","","-","","-","","-","","-"
"OC(=O)C1=CC2=C(OC1=O)C=CC(=C2)[N+]([O-])=O","-","-","-","6-Nitro-2-oxo-2H-chromene-3-carboxylic acid","200.0","?C","473.0","K","","","","","","-","","-","","-","","-"
"COC1=C(C(N)=O)C(OC)=C(Cl)C=C1Cl","-","-","-","3,5-Dichloro-2,6-dimethoxybenzamide","148.0 - 149.0","?C","421.5","K","","","","","","-","","-","","-","","-"
"[O-][N+](=O)C1=CC=CN=C1OC1=C(F)C=C(F)C=C1","-","-","-","2-(2,4-difluorophenoxy)-3-nitropyridine","63.0 - 65.0","?C","337.0","K","","","","","","-","","-","","-","","-"
"COC(=O)C(C#N)=C(NC(=O)C1=CC=CC=C1)SC","-","-","-","Methyl 3-(benzoylamino)-2-cyano-3-(methylthio)acrylate","129.0 - 131.0","?C","403.0","K","","","","","","-","","-","","-","","-"
"COC(=O)C1=C(SC)N=C(NC1=O)C1=CC=CC=C1","-","-","-","Methyl 4-(methylthio)-6-oxo-2-phenyl-1,6-dihydropyrimidine-5-carboxylate","283.0 - 285.0","?C","557.0","K","","","","","","-","","-","","-","","-"
"ON=CNC1=NC=CC=N1","-","-","-","N'-Hydroxy-N-pyrimidin-2-yliminoformamide","184.0 - 186.0","?C","458.0","K","","","","","","-","","-","","-","","-"
"COC1=C(OC)C(Cl)=C(C=C1)C(N)=O","-","-","-","2-Chloro-3,4-dimethoxybenzamide","165.0 - 168.0","?C","439.5","K","","","","","","-","","-","","-","","-"
"COC(=O)CC1C(=O)NC(C)=C1C(=O)OC","-","-","-","Methyl 4-(2-methoxy-2-oxoethyl)-2-methyl-5-oxo-4,5-dihydro-1H-pyrrole-3-carboxylate","93.0 - 94.0","?C","366.5","K","","","","","","-","","-","","-","","-"
"COC1=CC=C(OC2=NC=CC=C2[N+]([O-])=O)C=C1","-","-","-","2-(4-methoxyphenoxy)-3-nitropyridine","95.0 - 101.0","?C","371.0","K","","","","","","-","","-","","-","","-"
"O=C1CCCCCCCCCCC1CCC#N","-","-","-","3-(2-Oxocyclododecyl)propanenitrile","60.0 - 61.0","?C","333.5","K","","","","","","-","","-","","-","","-"
"CC(=O)C1=CC=C(OCC2=CC=C(F)C=C2)C(=C1)[N+]([O-])=O","-","-","-","1-{4-[(4-fluorobenzyl)oxy]-3-nitrophenyl}ethan-1-one","105.0 - 107.0","?C","379.0","K","","","","","","-","","-","","-","","-"
"CCCC1=C2OC(=CC(=O)C2=CC=C1O)C(O)=O","-","-","-","7-Hydroxy-4-oxo-8-propyl-4H-chromene-2-carboxylic acid","264.0 - 267.0","?C","538.5","K","","","","","","-","","-","","-","","-"
"CCOC1=CC=C(C=C1)C(=O)CCC(O)=O","-","-","-","4-(4-Ethoxyphenyl)-4-oxobutanoic acid","136.0 - 138.0","?C","410.0","K","","","","","","-","","-","","-","","-"
"CCOC(=O)CC(=O)C1=CC(=CC=C1)[N+]([O-])=O","-","-","-","Ethyl 3-(3-nitrophenyl)-3-oxopropanoate","75.0 - 77.0","?C","349.0","K","","","","","","-","","-","","-","","-"
"CCCCCCCCCCCC(=O)N1CC(=O)NC(=O)C1","-","-","-","4-dodecanoylpiperazine-2,6-dione","114.0 - 116.0","?C","388.0","K","","","","","","-","","-","","-","","-"
"ON=C1CCCC2=C1N=C(N2O)C1=CC=CC=C1","-","-","-","1-Hydroxy-2-phenyl-4,5,6,7-tetrahydro-1H-benzo[d]imidazol-4-one oxime","270.0 - 272.0","?C","544.0","K","","","","","","-","","-","","-","","-"
"CC(=O)NC(C(O)=O)C1=CC=CC=C1","-","-","-","2-(Acetylamino)-2-phenylacetic acid","197.0 - 201.0","?C","472.0","K","","","","","","-","","-","","-","","-"
"CC(C)=CCC(CC=C(C)C)(C#N)C(O)=O","-","-","-","2-Cyano-5-methyl-2-(3-methylbut-2-enyl)hex-4-enoic acid","70.0 - 71.0","?C","343.5","K","","","","","","-","","-","","-","","-"
"CC1(C)N(O)C(=O)C(C)(C)N(O)C1=O","-","-","-","1,4-Dihydroxy-3,3,6,6-tetramethylpiperazine-2,5-dione","300.0 - 303.0","?C","574.5","K","","","","","","-","","-","","-","","-"
"ON1C2=C(N=C1C1=CC=CC=C1)C(=O)CCC2","-","-","-","1-Hydroxy-2-phenyl-1,5,6,7-tetrahydro-4H-benzimidazol-4-one","247.0 - 257.0","?C","525.0","K","","","","","","-","","-","","-","","-"
"CC1(C)N(O)C(NC1=S)C1=CC=CC=C1","-","-","-","1-Hydroxy-5,5-dimethyl-2-phenyltetrahydro-4H-imidazole-4-thione","193.0 - 195.0","?C","467.0","K","","","","","","-","","-","","-","","-"
"OC(=O)C1=C2OCOC2=CC=C1","-","-","-","1,3-Benzodioxole-4-carboxylic acid","224.0 - 225.0","?C","497.5","K","","","","","","-","","-","","-","","-"
"CN1N=C(CCl)C=C1C","-","-","-","3-(Chloromethyl)-1,5-dimethyl-1H-pyrazole","63.0 - 66.0","?C","337.5","K","","","","","","-","","-","","-","","-"
"BrC1=CC=C(C=C1)N1CCCC1","-","-","-","1-(4-Bromophenyl)pyrrolidine","105.0 - 106.0","?C","378.5","K","","","","","","-","","-","","-","","-"
"ClCC1=NOC(=C1)C1=CC=CC=C1","-","-","-","3-(Chloromethyl)-5-phenylisoxazole","48.0 - 49.0","?C","321.5","K","","","","","","-","","-","","-","","-"
"O=CC1=C(N=C(S1)C1=CC=CC=C1)C1=CC=CC=C1","-","-","-","2,4-Diphenyl-1,3-thiazole-5-carbaldehyde","121.0 - 123.0","?C","395.0","K","","","","","","-","","-","","-","","-"
"OCC1=C(N=C(S1)C1=CC=CC=C1)C1=CC=CC=C1","-","-","-","(2,4-Diphenyl-1,3-thiazol-5-yl)methanol","125.0","?C","398.0","K","","","","","","-","","-","","-","","-"
"N#CC1=CC=C(CN2C=CN=C2)C=C1","-","-","-","4-(1H-Imidazol-1-ylmethyl)benzonitrile","103.0 - 104.0","?C","376.5","K","","","","","","-","","-","","-","","-"
"OC(=O)C1=CC(CN2C=NC=N2)=CC=C1","-","-","-","3-(1H-1,2,4-Triazol-1-ylmethyl)benzoic acid","209.0 - 210.0","?C","482.5","K","","","","","","-","","-","","-","","-"
"N#CC1=CC=C(CN2CCCCC2)C=C1","-","-","-","4-(Piperidin-1-ylmethyl)benzonitrile","38.0 - 40.0","?C","312.0","K","","","","","","-","","-","","-","","-"
"CN1CCN(CC2=CC=C(C=C2)C#N)CC1","-","-","-","4-[(4-Methylpiperazin-1-yl)methyl]benzonitrile","69.0 - 71.0","?C","343.0","K","","","","","","-","","-","","-","","-"
"IC1=CC=C(CN2C=NC=N2)C=C1","-","-","-","1-(4-Iodobenzyl)-1H-1,2,4-triazole","82.0 - 84.0","?C","356.0","K","","","","","","-","","-","","-","","-"
"N#CC1=CC=C(CN2C=NC=N2)C=C1","-","-","-","4-(1H-1,2,4-Triazol-1-ylmethyl)benzonitrile","69.0 - 72.0","?C","343.5","K","","","","","","-","","-","","-","","-"
"CN1N=C(C=C1C1=CC=CO1)C(O)=O","-","-","-","5-(2-Furyl)-1-methyl-1H-pyrazole-3-carboxylic acid","142.0 - 144.0","?C","416.0","K","","","","","","-","","-","","-","","-"
"CCOC(=O)C1=NN(C)C(=C1)C1=CC=CS1","-","-","-","Ethyl 1-methyl-5-thien-2-yl-1H-pyrazole-3-carboxylate","38.0 - 41.0","?C","312.5","K","","","","","","-","","-","","-","","-"
"CCOC(=O)C1=CC(=NN1C)C1=CC=CS1","-","-","-","Ethyl 1-methyl-3-thien-2-yl-1H-pyrazole-5-carboxylate","72.0 - 73.0","?C","345.5","K","","","","","","-","","-","","-","","-"
"OCC1=C2OCCOC2=CS1","-","-","-","2,3-Dihydrothieno[3,4-b][1,4]dioxin-5-ylmethanol","68.0 - 69.0","?C","341.5","K","","","","","","-","","-","","-","","-"
"N#CC1=C2OCCOC2=CS1","-","-","-","2,3-Dihydrothieno[3,4-b][1,4]dioxine-5-carbonitrile","70.0","?C","343.0","K","","","","","","-","","-","","-","","-"
"O=C1N2CCCNC2C2=CC=CC=C12","-","-","-","1,2,3,4,6,10b-Hexahydropyrimido[2,1-a]isoindol-6-one","129.5 - 132.5","?C","404.0","K","","","","","","-","","-","","-","","-"
"CC1=C(C(=O)NN)C(=NO1)C1=C(Cl)C=CC=C1Cl","-","-","-","3-(2,6-Dichlorophenyl)-5-methylisoxazole-4-carbohydrazide","149.5 - 152.5","?C","424.0","K","","","","","","-","","-","","-","","-"
"CN1C(S)=NN=C1CC#N","-","-","-","2-(5-Mercapto-4-methyl-4H-1,2,4-triazol-3-yl)acetonitrile","187.5 - 189.5","?C","461.5","K","","","","","","-","","-","","-","","-"
"CC1=C(C(N)=O)C(=NO1)C1=C(Cl)C=CC=C1Cl","-","-","-","3-(2,6-Dichlorophenyl)-5-methylisoxazole-4-carboxamide","166.0 - 168.0","?C","440.0","K","","","","","","-","","-","","-","","-"
"CC1=C(CC#N)C(=NO1)C1=C(Cl)C=CC=C1Cl","-","-","-","2-[3-(2,6-Dichlorophenyl)-5-methylisoxazol-4-yl]acetonitrile","75.0 - 78.0","?C","349.5","K","","","","","","-","","-","","-","","-"
"OC(=O)C=CC1=CC=C(O1)C1=CC=C(F)C=C1F","-","-","-","3-[5-(2,4-Difluorophenyl)-2-furyl]acrylic acid","218.0 - 220.0","?C","492.0","K","","","","","","-","","-","","-","","-"
"ON(CC1=C(F)C=CC=C1Cl)CC1=C(F)C=CC=C1Cl","-","-","-","N,N-di(2-chloro-6-fluorobenzyl)hydroxylamine","169.0 - 171.0","?C","443.0","K","","","","","","-","","-","","-","","-"
"CC1=CC=C(C)N1C1=C(SC=C1)C(=O)NN","-","-","-","3-(2,5-Dimethyl-1H-pyrrol-1-yl)-2-thiophenecarbohydrazide","135.0 - 136.0","?C","408.5","K","","","","","","-","","-","","-","","-"
"COC1=CC=C(OC)C2=C1C=CC=C2","-","-","-","1,4-Dimethoxynaphthalene","85.0 - 86.0","?C","358.5","K","","","","","","-","","-","","-","","-"
"FC1=C(CC#N)C=CC=C1CC#N","-","-","-","2-[3-(cyanomethyl)-2-fluorophenyl]acetonitrile","75.0 - 77.0","?C","349.0","K","","","","","","-","","-","","-","","-"
"CN1C=CC=C1C1=NN=C(S)N1C1=C(Cl)C=C(Cl)C=C1","-","-","-","4-(2,4-Dichlorophenyl)-5-(1-methyl-1H-pyrrol-2-yl)-4H-1,2,4-triazole-3-thiol","252.0 - 256.0","?C","527.0","K","","","","","","-","","-","","-","","-"
"CC1(C)OC(=O)C(CC#C)(CC#C)C(=O)O1","-","-","-","2,2-Dimethyl-5,5-diprop-2-ynyl-1,3-dioxane-4,6-dione","135.0 - 137.0","?C","409.0","K","","","","","","-","","-","","-","","-"
"CC(=O)C1=CC=C(O1)C1=C(Cl)C=C(Cl)C=C1Cl","-","-","-","1-[5-(2,4,6-Trichlorophenyl)-2-furyl]ethan-1-one","107.5 - 108.5","?C","381.0","K","","","","","","-","","-","","-","","-"
"CSC1=CC(=NN1)C1=CC=C(OC2=CC=CC=C2)C=C1","-","-","-","5-(methylthio)-3-(4-phenoxyphenyl)-1H-pyrazole","97.0 - 98.5","?C","370.8","K","","","","","","-","","-","","-","","-"
"OC(=O)C1=C(C=CC=C1)C(=O)C1=CC=C(F)C=C1","-","-","-","2-(4-Fluorobenzoyl)benzoic acid","140.0 - 141.0","?C","413.5","K","","","","","","-","","-","","-","","-"
"NNC(=O)CSC1=CC=CC=C1[N+]([O-])=O","-","-","-","2-[(2-Nitrophenyl)thio]ethanohydrazide","161.0 - 171.0","?C","439.0","K","","","","","","-","","-","","-","","-"
"NC1=CC(=NC(N)=N1)C1=CC=C(Cl)C=C1","-","-","-","6-(4-Chlorophenyl)pyrimidine-2,4-diamine","158.0 - 161.0","?C","432.5","K","","","","","","-","","-","","-","","-"
"CCCC1=C(C=NN1C1=CC=C(Cl)C=C1)C(=O)OCC","-","-","-","ethyl 1-(4-chlorophenyl)-5-propyl-1H-pyrazole-4-carboxylate","63.0 - 65.0","?C","337.0","K","","","","","","-","","-","","-","","-"
"COC(=O)CN1N=NC(=N1)N1CCOCC1","-","-","-","methyl 2-(5-morpholino-2H-1,2,3,4-tetraazol-2-yl)acetate","100.0 - 103.0","?C","374.5","K","","","","","","-","","-","","-","","-"
"COC(=O)C1=CC=C(N1C)S(=O)(=O)NC(C)(C)C","-","-","-","Methyl 5-[(tert-butylamino)sulfonyl]-1-methyl-1H-pyrrole-2-carboxylate","104.0 - 105.0","?C","377.5","K","","","","","","-","","-","","-","","-"
"NNC(=O)CN1C2=CC=CC=C2SC2=C1C=CC=C2","-","-","-","2-(10H-Phenothiazin-10-yl)acetohydrazide","216.0 - 218.0","?C","490.0","K","","","","","","-","","-","","-","","-"
"SC1=NN=C(N1CC1=CC=CO1)C1=C2C=CC=CC2=CC=C1","-","-","-","4-(2-Furylmethyl)-5-(1-naphthyl)-4H-1,2,4-triazole-3-thiol","177.0 - 178.0","?C","450.5","K","","","","","","-","","-","","-","","-"
"OC(=O)C1=CC2=C(OC1=O)C(Br)=CC(Cl)=C2","-","-","-","8-Bromo-6-chloro-2-oxo-2H-chromene-3-carboxylic acid","206.0 - 208.0","?C","480.0","K","","","","","","-","","-","","-","","-"
"CC1=CC(C)=C2C(SC(C(N)=O)=C2N)=N1","-","-","-","3-Amino-4,6-dimethylthieno[2,3-b]pyridine-2-carboxamide","234.0 - 235.0","?C","507.5","K","","","","","","-","","-","","-","","-"
"C(CSC1=NN=CN1)SC1=NN=CN1","-","-","-","3-{[2-(4H-1,2,4-Triazol-3-ylthio)ethyl]thio}-4H-1,2,4-triazole","197.0 - 200.0","?C","471.5","K","","","","","","-","","-","","-","","-"
"SC1=NN=C(SCCSC2=NN=C(S)S2)S1","-","-","-","5-({2-[(5-Mercapto-1,3,4-thiadiazol-2-yl)thio]ethyl}thio)-1,3,4-thiadiazole-2-thiol","202.0 - 204.0","?C","476.0","K","","","","","","-","","-","","-","","-"
"CCCSC1=NN=C(S)S1","-","-","-","5-(propylthio)-1,3,4-thiadiazole-2-thiol","145.0 - 147.0","?C","419.0","K","","","","","","-","","-","","-","","-"
"COC(=O)C1=CC=C(OC2=CC(Cl)=CC(Cl)=C2)O1","-","-","-","Methyl 5-(3,5-dichlorophenoxy)-2-furoate","86.0 - 89.0","?C","360.5","K","","","","","","-","","-","","-","","-"
"CCOC=C(C#N)S(=O)(=O)C1=CC=C(Cl)C=C1","-","-","-","2-[(4-Chlorophenyl)sulfonyl]-3-ethoxyacrylonitrile","121.0 - 124.0","?C","395.5","K","","","","","","-","","-","","-","","-"
"CCOC=C(C#N)S(=O)(=O)C1=CC=CC=C1","-","-","-","3-Ethoxy-2-(phenylsulfonyl)acrylonitrile","74.0","?C","347.0","K","","","","","","-","","-","","-","","-"
"ClC1=CC=C(CS(=O)(=O)CC#N)C=C1","-","-","-","2-[(4-chlorobenzyl)sulfonyl]acetonitrile","179.0 - 182.0","?C","453.5","K","","","","","","-","","-","","-","","-"
"CC1=C(SC=C1S(=O)(=O)C1=CC=C(Cl)C=C1)C(=O)NN","-","-","-","4-[(4-Chlorophenyl)sulfonyl]-3-methylthiophene-2-carbohydrazide","165.0 - 168.0","?C","439.5","K","","","","","","-","","-","","-","","-"
"CSC(SC)=C(C#N)C(=O)C1=CC(Cl)=CC=C1","-","-","-","2-(3-Chlorobenzoyl)-3,3-di(methylthio)acrylonitrile","88.0 - 91.0","?C","362.5","K","","","","","","-","","-","","-","","-"
"CCOC(=O)C1=C(C)N2N=C(C)C=C2N=C1","-","-","-","Ethyl 2,7-dimethylpyrazolo[1,5-a]pyrimidine-6-carboxylate","100.0 - 101.0","?C","373.5","K","","","","","","-","","-","","-","","-"
"OCCSCCS(=O)(=O)C1=CC=C(Cl)C=C1","-","-","-","2-({2-[(4-chlorophenyl)sulfonyl]ethyl}thio)ethan-1-ol","59.0 - 62.0","?C","333.5","K","","","","","","-","","-","","-","","-"
"CCOC=C(C#N)S(=O)(=O)C(C)(C)C","-","-","-","2-(tert-Butylsulfonyl)-3-ethoxyacrylonitrile","103.0 - 105.0","?C","377.0","K","","","","","","-","","-","","-","","-"
"COC(=O)C1=C(N2C=CC=C2)C(=CS1)S(C)(=O)=O","-","-","-","Methyl 4-(methylsulfonyl)-3-(1H-pyrrol-1-yl)thiophene-2-carboxylate","123.5 - 125.5","?C","397.5","K","","","","","","-","","-","","-","","-"
"CC1=NN2C(=C1)N=CC(=C2N)S(=O)(=O)C(C)(C)C","-","-","-","6-(tert-Butylsulfonyl)-2-methylpyrazolo[1,5-a]pyrimidin-7-amine","206.0 - 207.5","?C","479.8","K","","","","","","-","","-","","-","","-"
"CC1=NC=C(C(N)=N1)S(=O)(=O)C(C)(C)C","-","-","-","5-(tert-Butylsulfonyl)-2-methylpyrimidin-4-amine","163.0 - 166.0","?C","437.5","K","","","","","","-","","-","","-","","-"
"CS(=O)(=O)C1=C(C#N)C(=CS1)C1=CC=CC=C1","-","-","-","2-(Methylsulfonyl)-4-phenylthiophene-3-carbonitrile","164.0 - 166.0","?C","438.0","K","","","","","","-","","-","","-","","-"
"OC(=O)C1=CC=CC(CSC2=CC=CS2)=C1","-","-","-","3-[(2-Thienylthio)methyl]benzoic acid","108.0 - 110.0","?C","382.0","K","","","","","","-","","-","","-","","-"
"CC(C)S(=O)(=O)C1=CN=C(N=C1N)C1=CC=CC=N1","-","-","-","5-(isopropylsulfonyl)-2-(2-pyridyl)pyrimidin-4-amine","147.0 - 150.0","?C","421.5","K","","","","","","-","","-","","-","","-"
"CSC(SC)=C(C#N)S(=O)(=O)C(C)C","-","-","-","2-(isopropylsulfonyl)-3,3-di(methylthio)acrylonitrile","88.0 - 91.0","?C","362.5","K","","","","","","-","","-","","-","","-"
"CC(C)S(=O)(=O)C1=CN=C(N=C1N)N1CCCCC1","-","-","-","5-(Isopropylsulfonyl)-2-piperidinopyrimidin-4-amine","155.0 - 158.0","?C","429.5","K","","","","","","-","","-","","-","","-"
"CSCCC(NC(=O)C1=CC=C(C=C1)C(F)(F)F)C(=O)NN","-","-","-","N1-[1-(Hydrazinocarbonyl)-3-(methylthio)propyl]-4-(trifluoromethyl)benzamide","181.0 - 184.0","?C","455.5","K","","","","","","-","","-","","-","","-"
"CN1C(S)=NN=C1C1=CC=CS1","-","-","-","4-Methyl-5-(2-thienyl)-4H-1,2,4-triazole-3-thiol","153.0 - 156.0","?C","427.5","K","","","","","","-","","-","","-","","-"
"NC(=S)CS(=O)(=O)CC1=CC=CO1","-","-","-","2-[(2-Furylmethyl)sulfonyl]ethanethioamide","128.0 - 130.0","?C","402.0","K","","","","","","-","","-","","-","","-"
"CCOC(=O)C1=C2CC(C)(C)CC(=O)C2=C(SCC2=CC=CC=C2)S1","-","-","-","Ethyl 3-(benzylthio)-6,6-dimethyl-4-oxo-4,5,6,7-tetrahydrobenzo[c]thiophene-1-carboxylate","119.0 - 122.0","?C","393.5","K","","","","","","-","","-","","-","","-"
"COC(=O)C1=C(N)C(=CS1)S(=O)(=O)CC1=CC=CO1","-","-","-","Methyl 3-amino-4-[(2-furylmethyl)sulfonyl]thiophene-2-carboxylate","152.0 - 154.0","?C","426.0","K","","","","","","-","","-","","-","","-"
"CC1=C(SC2=C1C(C)=C(S2)C(O)=O)C(O)=O","-","-","-","3,4-dimethylthieno[2,3-b]thiophene-2,5-dicarboxylic acid","360.0","?C","633.0","K","","","","","","-","","-","","-","","-"
"CCCSC1=C2C(CCCC2=O)=C(S1)C(=O)OCC","-","-","-","ethyl 4-oxo-3-(propylthio)-4,5,6,7-tetrahydrobenzo[c]thiophene-1-carboxylate","136.0 - 139.0","?C","410.5","K","","","","","","-","","-","","-","","-"
"CC(=C(C#N)C#N)C1=CC=C(Cl)C=C1","-","-","-","2-[1-(4-Chlorophenyl)ethylidene]malononitrile","93.0","?C","366.0","K","","","","","","-","","-","","-","","-"
"ClC1CS(=O)(=O)CC1SC1=CC=C(Cl)C=C1","-","-","-","3-Chloro-4-[(4-chlorophenyl)thio]tetrahydro-1H-1lambda6-thiophene-1,1-dione","82.0 - 85.0","?C","356.5","K","","","","","","-","","-","","-","","-"
"CC(=O)N1CCC2=CC=CC=C12","-","-","-","1-(2,3-Dihydro-1H-indol-1-yl)ethan-1-one","102.0 - 104.0","?C","376.0","K","","","","","","-","","-","","-","","-"
"NNC(=O)C1SCCN1S(=O)(=O)C1=CC=C(Cl)C=C1","-","-","-","3-[(4-Chlorophenyl)sulfonyl]-1,3-thiazolane-2-carbohydrazide","200.0 - 201.0","?C","473.5","K","","","","","","-","","-","","-","","-"
"COC1=CC2=NON=C2C=C1","-","-","-","5-Methoxy-2,1,3-benzoxadiazole","99.0 - 101.5","?C","373.2","K","","","","","","-","","-","","-","","-"
"CC(=NO)C1=CC=C(Cl)C=C1Cl","-","-","-","1-(2,4-Dichlorophenyl)ethan-1-one oxime","148.0 - 151.0","?C","422.5","K","","","","","","-","","-","","-","","-"
"CC(=NO)C1=CC(Cl)=C(Cl)C=C1","-","-","-","1-(3,4-Dichlorophenyl)ethan-1-one oxime","108.0 - 111.0","?C","382.5","K","","","","","","-","","-","","-","","-"
"CSC1=NN2C(N=C(C=C2C(F)(F)F)C(F)(F)F)=C1C(N)=O","-","-","-","2-(methylthio)-5,7-di(trifluoromethyl)pyrazolo[1,5-a]pyrimidine-3-carboxamide","250.0","?C","523.0","K","","","","","","-","","-","","-","","-"
"ClC1=C(C=CC=C1)N1C=C(C#N)C(=O)NC1=O","-","-","-","1-(2-Chlorophenyl)-2,4-dioxo-1,2,3,4-tetrahydropyrimidine-5-carbonitrile","255.0 - 258.0","?C","529.5","K","","","","","","-","","-","","-","","-"
"CC(C)N1C=C(C#N)C(=O)NC1=O","-","-","-","1-Isopropyl-2,4-dioxo-1,2,3,4-tetrahydropyrimidine-5-carbonitrile","265.0 - 268.0","?C","539.5","K","","","","","","-","","-","","-","","-"
"CC(C)(O)C#CC1=CC=C(C=NO)C=C1","-","-","-","4-(3-Hydroxy-3-methylbut-1-ynyl)benzaldehyde oxime","109.0 - 112.0","?C","383.5","K","","","","","","-","","-","","-","","-"
"CN(CCO)C1=CC(=NC2=CC=CC=C12)C(F)(F)F","-","-","-","2-{Methyl[2-(trifluoromethyl)quinolin-4-yl]amino}ethan-1-ol","90.5 - 92.5","?C","364.5","K","","","","","","-","","-","","-","","-"
"COC1=CC(=NC2=C1C(=C(C)C=C2)[N+]([O-])=O)C(F)(F)F","-","-","-","4-Methoxy-6-methyl-5-nitro-2-(trifluoromethyl)quinoline","181.0 - 183.0","?C","455.0","K","","","","","","-","","-","","-","","-"