"SMILES","CASRN","EXTERNALID","N","NAME","Melting Point","UNIT {Melting Point}","Melting Point {measured, converted}","UNIT {Melting Point}","Dataset","comment (property)","comment (chemical)","measurement method","Pressure","UNIT {Pressure}","Som set numeric condition","UNIT {Som set numeric condition}","Resp set numeric condition","UNIT {Resp set numeric condition}","Quality code","UNIT {Quality code}"
"CC1=CC=C(SC2=C(C=CC=N2)C(O)=O)C=C1","-","-","-","2-[(4-Methylphenyl)thio]nicotinic acid","218.0 - 221.0","?C","492.5","K","","","","","","-","","-","","-","","-"
"ClC(=O)C1=C(SC2=CC=CC=C2)N=CC=C1","-","-","-","2-(Phenylthio)pyridine-3-carbonyl chloride","71.0 - 74.0","?C","345.5","K","","","","","","-","","-","","-","","-"
"CC1=CC=C(SC2=C(C=CC=N2)C(Cl)=O)C=C1","-","-","-","2-[(4-Methylphenyl)thio]pyridine-3-carbonyl chloride","102.0 - 104.0","?C","376.0","K","","","","","","-","","-","","-","","-"
"ClC(=O)C1=C(SC2=CC=C(Cl)C=C2)N=CC=C1","-","-","-","2-[(4-Chlorophenyl)thio]pyridine-3-carbonyl chloride","100.0 - 103.0","?C","374.5","K","","","","","","-","","-","","-","","-"
"ClC(=O)C1=C(OC2=CC=C(Cl)C=C2)N=CC=C1","-","-","-","2-(4-Chlorophenoxy)pyridine-3-carbonyl chloride","79.0 - 80.0","?C","352.5","K","","","","","","-","","-","","-","","-"
"NC(=O)C1=C(OC2=CC=C(Cl)C=C2)N=CC=C1","-","-","-","2-(4-Chlorophenoxy)nicotinamide","150.0 - 152.0","?C","424.0","K","","","","","","-","","-","","-","","-"
"CC1=CC=C(SC2=C(C=CC=N2)C(N)=O)C=C1","-","-","-","2-[(4-Methylphenyl)thio]nicotinamide","205.0 - 207.0","?C","479.0","K","","","","","","-","","-","","-","","-"
"CCOC(=O)C1=NN(C(=N)C(C#N)=C1C)C1=CC=C(C)C=C1","-","-","-","Ethyl 5-cyano-6-imino-4-methyl-1-(4-methylphenyl)-1,6-dihydropyridazine-3-carboxylat","150.0","?C","423.0","K","","","","","","-","","-","","-","","-"
"CC1=C(C)C=C(O1)C(O)=O","-","-","-","4,5-Dimethyl-2-furoic acid","146.0 - 148.0","?C","420.0","K","","","","","","-","","-","","-","","-"
"NNC1=C(Cl)C(=O)N(N=C1)C1=CC=CC=C1","-","-","-","4-Chloro-5-hydrazino-2-phenyl-2,3-dihydropyridazin-3-one","170.0","?C","443.0","K","","","","","","-","","-","","-","","-"
"CC(C)(C)OC(=O)C(C)(C)SC1=CC=C(Cl)C=C1","-","-","-","tert-Butyl 2-[(4-chlorophenyl)thio]-2-methylpropanoate","44.0 - 46.0","?C","318.0","K","","","","","","-","","-","","-","","-"
"NC1=NC(=CS1)C1=CC=C(Br)S1","-","-","-","4-(5-Bromo-2-thienyl)-1,3-thiazol-2-amine","170.0","?C","443.0","K","","","","","","-","","-","","-","","-"
"CC(=CC1=CC=CC=C1)C(Cl)=O","-","-","-","2-Methyl-3-phenylprop-2-enoyl chloride","45.0 - 46.0","?C","318.5","K","","","","","","-","","-","","-","","-"
"CC(=O)C1=C(C)NC(=O)C(=C1)C#N","-","-","-","5-Acetyl-2-hydroxy-6-methylnicotinonitrile","230.0 - 232.0","?C","504.0","K","","","","","","-","","-","","-","","-"
"CCOC(=O)C(=O)C1=CC=C(Br)S1","-","-","-","Ethyl 2-(5-bromo-2-thienyl)-2-oxoacetate","70.0 - 71.0","?C","343.5","K","","","","","","-","","-","","-","","-"
"NC(=N)NCCS(O)(=O)=O","-","-","-","2-[Amino(imino)methyl]aminoethane-1-sulfonic acid","263.0 - 265.0","?C","537.0","K","","","","","","-","","-","","-","","-"
"CC(C)(OC1=CC=C(C=C1)C#N)C(O)=O","-","-","-","2-(4-Cyanophenoxy)-2-methylpropanoic acid","117.0 - 120.0","?C","391.5","K","","","","","","-","","-","","-","","-"
"FC(F)(F)C1=CC=CC(Cl)=N1","-","-","-","2-Chloro-6-(trifluoromethyl)pyridine","33.0 - 35.0","?C","307.0","K","","","","","","-","","-","","-","","-"
"CC1=NN(C(O)=C1)C1=CC=C(C)C=C1","-","-","-","3-Methyl-1-(4-methylphenyl)-1H-pyrazol-5-ol","132.0 - 133.0","?C","405.5","K","","","","","","-","","-","","-","","-"
"COC1=C(OC)C(Cl)=C(C=CC(O)=O)C=C1","-","-","-","3-(2-Chloro-3,4-dimethoxyphenyl)acrylic acid","217.0 - 218.0","?C","490.5","K","","","","","","-","","-","","-","","-"
"CCOC(=O)C=CC1=C(Cl)C(OC)=C(OC)C=C1","-","-","-","Ethyl 3-(2-chloro-3,4-dimethoxyphenyl)acrylate","68.0 - 69.0","?C","341.5","K","","","","","","-","","-","","-","","-"
"COC1=C(OC)C(Cl)=C(C=C1)C(O)=O","-","-","-","2-Chloro-3,4-dimethoxybenzoic acid","193.0 - 196.0","?C","467.5","K","","","","","","-","","-","","-","","-"
"COC1=CC=CC(CC(=O)NN)=C1","-","-","-","2-(3-Methoxyphenyl)ethanohydrazide","89.0 - 90.0","?C","362.5","K","","","","","","-","","-","","-","","-"
"COC1=C(OC)C(Cl)=C(C=CC(Cl)=O)C=C1","-","-","-","3-(2-Chloro-3,4-dimethoxyphenyl)prop-2-enoyl chloride","86.0 - 88.0","?C","360.0","K","","","","","","-","","-","","-","","-"
"COC(=O)C1=C(Cl)C(OC)=C(OC)C=C1","-","-","-","Methyl 2-chloro-3,4-dimethoxybenzoate","46.0 - 48.0","?C","320.0","K","","","","","","-","","-","","-","","-"
"CCOC(=O)C1=C(Cl)C(OC)=C(OC)C=C1","-","-","-","Ethyl 2-chloro-3,4-dimethoxybenzoate","50.0 - 52.0","?C","324.0","K","","","","","","-","","-","","-","","-"
"CCOC(=O)C1=C(C)C(CC)=C(C)N1","-","-","-","Ethyl 4-ethyl-3,5-dimethyl-1H-pyrrole-2-carboxylate","87.0 - 88.0","?C","360.5","K","","","","","","-","","-","","-","","-"
"CC(=O)N1CC(C)=CC1=O","-","-","-","1-Acetyl-4-methyl-2,5-dihydro-1H-pyrrol-2-one","89.0 - 90.0","?C","362.5","K","","","","","","-","","-","","-","","-"
"COC(=O)C1=C(C)NC(=O)C1CC(O)=O","-","-","-","2-[4-(Methoxycarbonyl)-5-methyl-2-oxo-2,3-dihydro-1H-pyrrol-3-yl]acetic acid","160.0 - 162.0","?C","434.0","K","","","","","","-","","-","","-","","-"
"CCN(CC)C(=O)C1=C(C)C(C)=C(C)N1","-","-","-","N2,N2-Diethyl-3,4,5-trimethyl-1H-pyrrole-2-carboxamide","113.0 - 115.0","?C","387.0","K","","","","","","-","","-","","-","","-"
"CC1=CC=C(OC(C)(C)C(O)=O)C2=C1CCC2","-","-","-","2-Methyl-2-[(7-methyl-2,3-dihydro-1H-inden-4-yl)oxy]propanoic acid","89.0 - 90.0","?C","362.5","K","","","","","","-","","-","","-","","-"
"COC1=C2CCCC2=C(C)C=C1Br","-","-","-","5-Bromo-4-methoxy-7-methylindane","30.0","?C","303.0","K","","","","","","-","","-","","-","","-"
"COC1=C(C=C(C)C2=C1CCC2)C#N","-","-","-","4-Methoxy-7-methylindane-5-carbonitrile","62.0 - 63.0","?C","335.5","K","","","","","","-","","-","","-","","-"
"CC1=C2CCCC2=C(OC2=NC=CC=C2N)C=C1","-","-","-","2-[(7-Methyl-2,3-dihydro-1H-inden-4-yl)oxy]pyridin-3-amine","150.0","?C","423.0","K","","","","","","-","","-","","-","","-"
"COC(=O)C1=C(OC)C=C(N)C=C1","-","-","-","Methyl 4-amino-2-methoxybenzoate","156.0 - 157.0","?C","429.5","K","","","","","","-","","-","","-","","-"
"CC1=CC(Cl)=CC=C1OC1=NC=CC=C1[N+]([O-])=O","-","-","-","2-(4-Chloro-2-methylphenoxy)-3-nitropyridine","89.0 - 91.0","?C","363.0","K","","","","","","-","","-","","-","","-"
"CC1=CC(OC2=NC=CC=C2[N+]([O-])=O)=CC(C)=C1Cl","-","-","-","2-(4-Chloro-3,5-dimethylphenoxy)-3-nitropyridine","80.0 - 82.0","?C","354.0","K","","","","","","-","","-","","-","","-"
"CC1=C(C)C(OC2=NC=CC=C2[N+]([O-])=O)=CC=C1","-","-","-","2-(2,3-Dimethylphenoxy)-3-nitropyridine","210.0 - 213.0","?C","484.5","K","","","","","","-","","-","","-","","-"
"CC1=NC(=C(Br)N1CCC#N)[N+]([O-])=O","-","-","-","3-(5-Bromo-2-methyl-4-nitro-1H-imidazol-1-yl)propanenitrile","152.0 - 155.0","?C","426.5","K","","","","","","-","","-","","-","","-"
"CC1=NC(=C(Br)N1)[N+]([O-])=O","-","-","-","5-Bromo-2-methyl-4-nitro-1H-imidazole","256.0 - 257.0","?C","529.5","K","","","","","","-","","-","","-","","-"
"CC(=O)CCN1C=C(N=C1C)[N+]([O-])=O","-","-","-","4-(2-Methyl-4-nitro-1H-imidazol-1-yl)butan-2-one","98.0 - 100.0","?C","372.0","K","","","","","","-","","-","","-","","-"
"OC(=O)CCC1CCCCCCCCCCC1=O","-","-","-","3-(2-Oxocyclododecyl)propanoic acid","88.0 - 90.0","?C","362.0","K","","","","","","-","","-","","-","","-"
"CCCCCCCCCCC1=CC=C(C=C1)C(C)=O","-","-","-","1-(4-Decylphenyl)ethan-1-one","33.0 - 35.0","?C","307.0","K","","","","","","-","","-","","-","","-"
"CCCCCC1=CC=C(C=C1)S(Cl)(=O)=O","-","-","-","4-Pentylbenzene-1-sulfonyl chloride","42.0 - 44.0","?C","316.0","K","","","","","","-","","-","","-","","-"
"CCCCCCCCC1=CC=C(C=C1)C(=O)CCC(O)=O","-","-","-","4-(4-Octylphenyl)-4-oxobutanoic acid","91.0 - 93.0","?C","365.0","K","","","","","","-","","-","","-","","-"
"CCCC1=CC=C(C=C1)C(=O)CCC(O)=O","-","-","-","4-Oxo-4-(4-propylphenyl)butanoic acid","117.0 - 119.0","?C","391.0","K","","","","","","-","","-","","-","","-"
"CCCOC1=CC=C(C=C1)C#N","-","-","-","4-Propoxybenzonitrile","41.0","?C","314.0","K","","","","","","-","","-","","-","","-"
"CC(C)(C)C1=CC(=CC(=C1O)C(C)(C)C)C#N","-","-","-","3,5-Di(tert-butyl)-4-hydroxybenzonitrile","144.0 - 146.0","?C","418.0","K","","","","","","-","","-","","-","","-"
"COC1=CC=C(C=C1)C#C","-","-","-","1-Eth-1-ynyl-4-methoxybenzene","28.0 - 30.0","?C","302.0","K","","","","","","-","","-","","-","","-"
"CC1=C(CC(O)=O)N=C(O1)C1=CC=CC=C1","-","-","-","2-(5-Methyl-2-phenyl-1,3-oxazol-4-yl)acetic acid","131.0 - 133.0","?C","405.0","K","","","","","","-","","-","","-","","-"
"CC1=C(CCO)N=C(O1)C1=CC=CC=C1","-","-","-","2-(5-Methyl-2-phenyl-1,3-oxazol-4-yl)ethan-1-ol","72.0 - 75.0","?C","346.5","K","","","","","","-","","-","","-","","-"
"ON=C(C1=CC=CS1)C1=CC=CS1","-","-","-","Di(2-thienyl)methanone oxime","134.0 - 136.0","?C","408.0","K","","","","","","-","","-","","-","","-"
"COC1=C(O)C=CC(CCC(C)=NO)=C1","-","-","-","4-(4-Hydroxy-3-methoxyphenyl)butan-2-one oxime","82.0 - 84.0","?C","356.0","K","","","","","","-","","-","","-","","-"
"CC1=CC(C)=C(CS)C(C)=C1CS","-","-","-","[3-(Mercaptomethyl)-2,4,6-trimethylphenyl]methanethiol","65.0 - 66.0","?C","338.5","K","","","","","","-","","-","","-","","-"
"NC1=CC2=CC=CC=C2C(Br)=N1","-","-","-","1-Bromoisoquinolin-3-amine","144.0 - 146.0","?C","418.0","K","","","","","","-","","-","","-","","-"
"ClC1=NNC(=O)C2=CC=CC=C12","-","-","-","4-Chloro-1,2-dihydrophthalazin-1-one","273.0 - 275.0","?C","547.0","K","","","","","","-","","-","","-","","-"
"CC(C)CCOC1=C(C(C)=O)C(O)=CC=C1","-","-","-","1-[2-Hydroxy-6-(isopentyloxy)phenyl]ethan-1-one","25.0 - 27.0","?C","299.0","K","","","","","","-","","-","","-","","-"
"CCCC1=CC=C(NC(C)=O)C=C1O","-","-","-","N1-(3-Hydroxy-4-propylphenyl)acetamide","178.0 - 179.0","?C","451.5","K","","","","","","-","","-","","-","","-"
"N#CCCC1=CC=CC(OCC2=CC=CC=C2)=C1OCC1=CC=CC=C1","-","-","-","3-[2,3-Di(benzyloxy)phenyl]propanenitrile","200.0","?C","473.0","K","","","","","","-","","-","","-","","-"
"C#CC1=CC=C(C=C1)C1=CC=CC=C1","-","-","-","4-Ethynyl-1,1'-biphenyl","80.0 - 87.0","?C","356.5","K","","","","","","-","","-","","-","","-"
"CCOC(=O)C1=C(O)C(O)=C(O1)C(=O)OCC","-","-","-","Diethyl 3,4-dihydroxyfuran-2,5-dicarboxylate","178.0 - 180.0","?C","452.0","K","","","","","","-","","-","","-","","-"
"CCCC1=C2OC(=CC(=O)C2=CC=C1OCC=C)C(=O)OCC","-","-","-","Ethyl 7-(allyloxy)-4-oxo-8-propyl-4H-chromene-2-carboxylate","84.0 - 86.0","?C","358.0","K","","","","","","-","","-","","-","","-"
"NC1=CC2=CC=CC=C2C=N1","-","-","-","Isoquinolin-3-amine","154.0 - 156.0","?C","428.0","K","","","","","","-","","-","","-","","-"
"CC(=O)OC1=CC=C(C(C)=O)C(O)=C1","-","-","-","4-Acetyl-3-hydroxyphenyl acetate","57.0 - 59.0","?C","331.0","K","","","","","","-","","-","","-","","-"
"CCCC1=C(O)C(=CC(C(C)=O)=C1O)C(C)=O","-","-","-","1-(5-Acetyl-2,4-dihydroxy-3-propylphenyl)ethan-1-one","99.0 - 100.0","?C","372.5","K","","","","","","-","","-","","-","","-"
"CCOC(=O)C1=CC2=CC(OCC3=CC=CC=C3)=CC=C2N1","-","-","-","Ethyl 5-(benzyloxy)-1H-indole-2-carboxylate","163.0","?C","436.0","K","","","","","","-","","-","","-","","-"
"CCOC(=O)C1=CC(=O)C2=CC(I)=CC=C2O1","-","-","-","Ethyl 6-iodo-4-oxo-4H-chromene-2-carboxylate","148.0 - 150.0","?C","422.0","K","","","","","","-","","-","","-","","-"
"CSC1=NC=C(Cl)C(=N1)C(O)=O","-","-","-","5-Chloro-2-(methylthio)pyrimidine-4-carboxylic acid","200.0","?C","473.0","K","","","","","","-","","-","","-","","-"
"CC1=C(C2=CC=CN=C2C=C1)[N+]([O-])=O","-","-","-","6-Methyl-5-nitroquinoline","118.0 - 120.0","?C","392.0","K","","","","","","-","","-","","-","","-"
"CCNC1=CC=C(C=C1)C(O)=O","-","-","-","4-(Ethylamino)benzoic acid","175.0 - 177.0","?C","449.0","K","","","","","","-","","-","","-","","-"
"ClC1=CC(Cl)=NC(CC2=CC=CC=C2)=N1","-","-","-","2-Benzyl-4,6-dichloropyrimidine","56.0 - 57.0","?C","329.5","K","","","","","","-","","-","","-","","-"
"CC1=NC(C)=NC(NN)=C1","-","-","-","4-Hydrazino-2,6-dimethylpyrimidine","189.0 - 190.0","?C","462.5","K","","","","","","-","","-","","-","","-"
"NC1=C(CC2=CC=CC=C2)C2=CC=CC=C2C(Br)=N1","-","-","-","4-Benzyl-1-bromoisoquinolin-3-amine","155.0 - 156.0","?C","428.5","K","","","","","","-","","-","","-","","-"
"CCOC(=O)CC1=C(NC(C)=C1C(=O)OCC1=CC=CC=C1)C(=O)OCC","-","-","-","4-Benzyl 2-ethyl 3-(2-ethoxy-2-oxoethyl)-5-methyl-1H-pyrrole-2,4-dicarboxylate","110.0 - 112.0","?C","384.0","K","","","","","","-","","-","","-","","-"
"SC1=NC2=CC3=C(OCCO3)C=C2N1","-","-","-","6,7-Dihydro-1H-[1,4]dioxino[2',3',4,5]benzo[d]imidazole-2-thiol","300.0","?C","573.0","K","","","","","","-","","-","","-","","-"
"O=C(C1=CC=CC=C1)C1=CC2=C(OCCCO2)C=C1","-","-","-","3,4-Dihydro-2H-1,5-benzodioxepin-7-yl(phenyl)methanone","72.0 - 75.0","?C","346.5","K","","","","","","-","","-","","-","","-"
"COC(=O)C1=CC=CC2=C1C1=C(C=CC=C1)C2=O","-","-","-","Methyl 9-oxo-9H-fluorene-4-carboxylate","135.0 - 136.0","?C","408.5","K","","","","","","-","","-","","-","","-"
"OC(=O)C1=CC(Br)=C(C=C1Br)C(O)=O","-","-","-","2,5-Dibromoterephthalic acid","315.0 - 318.0","?C","589.5","K","","","","","","-","","-","","-","","-"
"COC1=CC=C(OCC(O)CN)C=C1","-","-","-","1-Amino-3-(4-methoxyphenoxy)propan-2-ol","110.0 - 112.0","?C","384.0","K","","","","","","-","","-","","-","","-"
"C(C1CO1)N1C2=CC=CC=C2C2=C1C=CC=C2","-","-","-","9-(Oxiran-2-ylmethyl)-9H-carbazole","110.0 - 112.0","?C","384.0","K","","","","","","-","","-","","-","","-"
"CN(C)CC(O)CN1C2=CC=C(Br)C=C2C2=C1C=CC(Br)=C2","-","-","-","1-(3,6-Dibromo-9H-carbazol-9-yl)-3-(dimethylamino)propan-2-ol","153.0 - 154.0","?C","426.5","K","","","","","","-","","-","","-","","-"
"O=CC1=CN(CC2=CC=CC=C2)C2=CC=CC=C12","-","-","-","1-Benzyl-1H-indole-3-carbaldehyde","108.0 - 110.0","?C","382.0","K","","","","","","-","","-","","-","","-"
"COC(=O)C1=CC=CC2=C1NC=C2","-","-","-","Methyl 1H-indole-7-carboxylate","46.0 - 47.0","?C","319.5","K","","","","","","-","","-","","-","","-"
"OC(=O)C1=C2C(Br)=CC=CC2=CC=C1","-","-","-","8-Bromo-1-naphthoic acid","169.0 - 171.0","?C","443.0","K","","","","","","-","","-","","-","","-"
"CN1C(=O)C=C(O)C2=CC=CC=C12","-","-","-","4-Hydroxy-1-methyl-1,2-dihydroquinolin-2-one","264.0 - 266.0","?C","538.0","K","","","","","","-","","-","","-","","-"
"O=C1CCC2CC1CCC2=O","-","-","-","Bicyclo[3.3.1]nonane-2,6-dione","151.0","?C","424.0","K","","","","","","-","","-","","-","","-"
"OC(=O)C1=NSC(Cl)=C1Cl","-","-","-","4,5-Dichloroisothiazole-3-carboxylic acid","169.0","?C","442.0","K","","","","","","-","","-","","-","","-"
"OC(=O)CSC1=NN=C(S)S1","-","-","-","2-[(5-Mercapto-1,3,4-thiadiazol-2-yl)thio]acetic acid","168.0 - 169.0","?C","441.5","K","","","","","","-","","-","","-","","-"
"OC(=O)C1=CC=C(Br)S1","-","-","-","5-Bromothiophene-2-carboxylic acid","140.0 - 142.0","?C","414.0","K","","","","","","-","","-","","-","","-"
"COC(=O)CC1=C(C)SC(=N1)C1=CC=CC=C1","-","-","-","Methyl 2-(5-methyl-2-phenyl-1,3-thiazol-4-yl)acetate","42.0 - 44.0","?C","316.0","K","","","","","","-","","-","","-","","-"
"OC(=O)CCC(=O)C1=CC2=C(OCCCO2)C=C1","-","-","-","4-(3,4-Dihydro-2H-1,5-benzodioxepin-7-yl)-4-oxobutanoic acid","149.0 - 151.0","?C","423.0","K","","","","","","-","","-","","-","","-"
"NC1=CC2=C(OCCCO2)C=C1","-","-","-","3,4-Dihydro-2H-1,5-benzodioxepin-7-amine","81.0 - 82.0","?C","354.5","K","","","","","","-","","-","","-","","-"
"CC(=O)C1=CC2=C(OCCCO2)C=C1Br","-","-","-","1-(8-Bromo-3,4-dihydro-2H-1,5-benzodioxepin-7-yl)ethan-1-one","56.0 - 58.0","?C","330.0","K","","","","","","-","","-","","-","","-"
"CCCCCC1=CC=C(C=C1)C(C)=NO","-","-","-","1-(4-Pentylphenyl)ethan-1-one oxime","68.0","?C","341.0","K","","","","","","-","","-","","-","","-"
"OC(=O)C1=C2NC=CC2=CC=C1","-","-","-","1H-Indole-7-carboxylic acid","202.0 - 204.0","?C","476.0","K","","","","","","-","","-","","-","","-"
"CN1C2=CC=CC=C2C2=C1C=CC(=C2)[N+]([O-])=O","-","-","-","9-Methyl-3-nitro-9H-carbazole","172.0 - 173.5","?C","445.8","K","","","","","","-","","-","","-","","-"
"BrC1=CC2=C(OCCO2)C=C1C(=O)CC1=CC=CC=C1","-","-","-","1-(7-Bromo-2,3-dihydro-1,4-benzodioxin-6-yl)-2-phenylethan-1-one","142.0 - 144.0","?C","416.0","K","","","","","","-","","-","","-","","-"
"BrC1=CC2=C(OCCCO2)C=C1C(=O)C1=CC=CC=C1","-","-","-","(8-Bromo-3,4-dihydro-2H-1,5-benzodioxepin-7-yl)(phenyl)methanone","105.0 - 107.0","?C","379.0","K","","","","","","-","","-","","-","","-"
"OC(=O)CCC(=O)C1=CC2=C(OCCO2)C=C1","-","-","-","4-(2,3-Dihydro-1,4-benzodioxin-6-yl)-4-oxobutanoic acid","138.0 - 140.0","?C","412.0","K","","","","","","-","","-","","-","","-"
"NC(=O)C1CC1(Cl)Cl","-","-","-","2,2-Dichlorocyclopropanecarboxamide","148.0 - 149.0","?C","421.5","K","","","","","","-","","-","","-","","-"
"ClC1=CC=C(C=C1)C(=O)C1=CC2=C(OCCO2)C=C1Br","-","-","-","(7-Bromo-2,3-dihydro-1,4-benzodioxin-6-yl)(4-chlorophenyl)methanone","129.0 - 130.0","?C","402.5","K","","","","","","-","","-","","-","","-"
"COC1=CC=CC=C1C(=O)C1=CC2=C(OCCO2)C=C1Br","-","-","-","(7-Bromo-2,3-dihydro-1,4-benzodioxin-6-yl)(2-methoxyphenyl)methanone","95.0 - 97.0","?C","369.0","K","","","","","","-","","-","","-","","-"
"CC1=CC=C(C=C1)C(=O)C1=CC2=C(OCCO2)C=C1Br","-","-","-","(7-Bromo-2,3-dihydro-1,4-benzodioxin-6-yl)(4-methylphenyl)methanone","110.0 - 112.0","?C","384.0","K","","","","","","-","","-","","-","","-"
"CC1CC2=CC(=CC=C2O1)C(C)=NO","-","-","-","1-(2-Methyl-2,3-dihydrobenzo[b]furan-5-yl)ethan-1-one oxime","83.0 - 85.0","?C","357.0","K","","","","","","-","","-","","-","","-"
"CC12CC3(C)CC(C)(C1)CC(C2)(C3)C(O)=O","-","-","-","3,5,7-Trimethyladamantane-1-carboxylic acid","149.0 - 151.0","?C","423.0","K","","","","","","-","","-","","-","","-"
"OC(=O)CCC12CC3CC(CC(C3)C1)C2","-","-","-","3-(1-Adamantyl)propanoic acid","147.0 - 148.0","?C","420.5","K","","","","","","-","","-","","-","","-"
"OC(=O)C1=CC=CC(I)=C1C(O)=O","-","-","-","3-Iodophthalic acid","178.0 - 182.0","?C","453.0","K","","","","","","-","","-","","-","","-"
"CCC12CC3CC(C1)CC(C3)(C2)C(O)=O","-","-","-","3-Ethyladamantane-1-carboxylic acid","94.0 - 96.0","?C","368.0","K","","","","","","-","","-","","-","","-"
"CC12CC3CC(Br)(C1)CC(C3)(C2)C(O)=O","-","-","-","3-Bromo-5-methyladamantane-1-carboxylic acid","118.0 - 120.0","?C","392.0","K","","","","","","-","","-","","-","","-"
"ON=C1CCCC2=NON=C12","-","-","-","4,5,6,7-Tetrahydro-2,1,3-benzoxadiazol-4-one oxime","166.0 - 168.0","?C","440.0","K","","","","","","-","","-","","-","","-"
"NC1=CC=CC2=NON=C12","-","-","-","2,1,3-benzoxadiazol-4-amine","109.0 - 111.0","?C","383.0","K","","","","","","-","","-","","-","","-"
"CCC1N=C2C(CCCC2=NO)=[N+]1[O-]","-","-","-","4-Hydroxyimino-2,2-dimethyl-4,5,6,7-tetrahydro-2H-benzo[d]imidazol-1-ium-1-olate","266.0","?C","539.0","K","","","","","","-","","-","","-","","-"
"OC1=CC(NC2=CC(=O)C(=O)C3=CC=CC=C23)=CC=C1","-","-","-","4-(3-Hydroxyanilino)-1,2-dihydronaphthalene-1,2-dione","300.0","?C","573.0","K","","","","","","-","","-","","-","","-"
"BrC1=CC=C2C(=C1)C(=O)C1=C2C=CC(Br)=C1","-","-","-","2,7-Dibromo-9H-fluoren-9-one","202.0 - 204.0","?C","476.0","K","","","","","","-","","-","","-","","-"
"CCNC1=CC(NC(C)=O)=CC=C1C","-","-","-","N1-[3-(Ethylamino)-4-methylphenyl]acetamide","107.0 - 109.0","?C","381.0","K","","","","","","-","","-","","-","","-"
"CCOC1=CC(N2CCOCC2)=C(OCC)C=C1[N+]([O-])=O","-","-","-","4-(2,5-Diethoxy-4-nitrophenyl)morpholine","139.0 - 141.0","?C","413.0","K","","","","","","-","","-","","-","","-"
"BrC(Br)C1=CC=C(C=C1)C(Br)Br","-","-","-","1,4-Di(dibromomethyl)benzene","170.0 - 173.0","?C","444.5","K","","","","","","-","","-","","-","","-"
"OC1=CC=C(C2=C1C(=O)C1=CC=CC=C1C2=O)[N+]([O-])=O","-","-","-","1-Hydroxy-4-nitro-9,10-dihydroanthracene-9,10-dione","273.0 - 275.0","?C","547.0","K","","","","","","-","","-","","-","","-"
"CC1=C(C2=C(C=C1)N=C(S2)C1=CC=C(N)C=C1)S(O)(=O)=O","-","-","-","2-(4-Aminophenyl)-6-methyl-1,3-benzothiazole-7-sulfonic acid","300.0","?C","573.0","K","","","","","","-","","-","","-","","-"
"CC1=CC(I)=C(C)C=C1I","-","-","-","1,4-Diiodo-2,5-dimethylbenzene","103.0 - 104.0","?C","376.5","K","","","","","","-","","-","","-","","-"