"SMILES","CASRN","EXTERNALID","N","NAME","Melting Point","UNIT {Melting Point}","Melting Point {measured, converted}","UNIT {Melting Point}","Dataset","comment (property)","comment (chemical)","measurement method","Pressure","UNIT {Pressure}","Som set numeric condition","UNIT {Som set numeric condition}","Resp set numeric condition","UNIT {Resp set numeric condition}","Quality code","UNIT {Quality code}"
"OC(=O)C1CCN(CC1)C1=NC(=CC=N1)C(F)(F)F","-","-","-","1-[4-(Trifluoromethyl)-2-pyrimidinyl]-4-piperidinecarboxylic acid","140.0 - 142.0","?C","414.0","K","","","","","","-","","-","","-","","-"
"CN1N=C(C)C=C1C(N)=S","-","-","-","1,3-Dimethyl-1H-pyrazole-5-carbothioamide","170.0","?C","443.0","K","","","","","","-","","-","","-","","-"
"OC(=O)C1=CSC2=C1C=C(Br)C=C2","-","-","-","5-Bromobenzo[b]thiophene-3-carboxylic acid","284.0 - 287.0","?C","558.5","K","","","","","","-","","-","","-","","-"
"O=C(OCC1=CC=CC=C1)C=P(C1=CC=CC=C1)(C1=CC=CC=C1)C1=CC=CC=C1","-","-","-","Benzyl (triphenylphosphoranylidene)acetate","120.0 - 127.0","?C","396.5","K","","","","","","-","","-","","-","","-"
"COC1=CC(=CC=C1)P(C1=CC=CC(OC)=C1)C1=CC=CC(OC)=C1","-","-","-","Tris(3-methoxyphenyl)phosphine","115.0","?C","388.0","K","","","","","","-","","-","","-","","-"
"OC1=CC2=C(C=CN2)C=C1","-","-","-","6-hydroxyindole","124.0 - 130.0","?C","400.0","K","","","","","","-","","-","","-","","-"
"CC1=CC=C(C=C1)C1=C(C#N)C(Cl)=NS1","-","-","-","3-Chloro-5-(4-methylphenyl)isothiazole-4-carbonitrile","82.0 - 83.0","?C","355.5","K","","","","","","-","","-","","-","","-"
"ClC1=CN=C(Br)C=C1","-","-","-","2-Bromo-5-chloropyridine","65.0 - 69.0","?C","340.0","K","","","","","","-","","-","","-","","-"
"[O-][N+](=O)C=CC1=CC=C2OCOC2=C1","-","-","-","3,4-Methylenedioxy-beta-nitrostyrene","159.0 - 163.0","?C","434.0","K","","","","","","-","","-","","-","","-"
"CC1=C(SC(=N1)C1=CC=C(C=C1)C(F)(F)F)S(Cl)(=O)=O","-","-","-","4-Methyl-2-[4-(trifluoromethyl)phenyl]-1,3-thiazole-5-sulfonyl chloride","93.0 - 94.0","?C","366.5","K","","","","","","-","","-","","-","","-"
"CC1=CC(C(O)=O)=C(Cl)C=C1","-","-","-","2-CHLORO-5-METHYLBENZOIC ACID","148.0 - 150.0","?C","422.0","K","","","","","","-","","-","","-","","-"
"OC(=O)C1=CC=C(C=C1)C(=O)C(F)(F)F","-","-","-","4-(2,2,2-Trifluoroacetyl)benzoic acid","178.0 - 181.0","?C","452.5","K","","","","","","-","","-","","-","","-"
"BrCC(=O)C1=CC=CO1","-","-","-","2-Bromo-1-(2-furyl)-1-ethanone","34.0","?C","307.0","K","","","","","","-","","-","","-","","-"
"CC(C)(C)OC(=O)N1CCN(CC2=CC=C(C=O)C=C2)CC1","-","-","-","tert-Butyl 4-(4-formylbenzyl)piperazine-1-carboxylate","57.0 - 59.0","?C","331.0","K","","","","","","-","","-","","-","","-"
"CCOC(=O)C1=CN2C=CC=CC2=N1","-","-","-","Ethyl imidazo[1,2-a]pyridine-2-carboxylate","80.0 - 83.0","?C","354.5","K","","","","","","-","","-","","-","","-"
"OC(=O)C1=CC=C(C=C1)C1=CC=NC=C1","-","-","-","4-Pyrid-4-ylbenzoic acid","300.0","?C","573.0","K","","","","","","-","","-","","-","","-"
"OCC1=CC=C(C=C1)C1=CC=NC=C1","-","-","-","(4-Pyrid-4-ylphenyl)methanol","173.0 - 176.0","?C","447.5","K","","","","","","-","","-","","-","","-"
"OC(=O)C1=CC=CC=C1C1=CC=CS1","-","-","-","2-Thien-2-ylbenzoic acid","92.0 - 95.0","?C","366.5","K","","","","","","-","","-","","-","","-"
"OC1CCC2CC1CC2C(O)=O","-","-","-","2-Hydroxybicyclo[3.2.1]octane-6-carboxylic acid","160.0 - 169.0","?C","437.5","K","","","","","","-","","-","","-","","-"
"CC1=NC(=NO1)C1=CC=C(Br)C=C1","-","-","-","3-(4-Bromophenyl)-5-methyl-1,2,4-oxadiazole","98.0 - 99.0","?C","371.5","K","","","","","","-","","-","","-","","-"
"CN1C(S)=NC=C1C1=CC=C(Cl)C=C1","-","-","-","5-(4-Chlorophenyl)-1-methyl-1H-imidazole-2-thiol","244.0 - 247.0","?C","518.5","K","","","","","","-","","-","","-","","-"
"[O-][N+](=O)C1=CC=CC(OCCCCBr)=C1","-","-","-","1-(4-Bromobutoxy)-3-nitrobenzene","62.0 - 63.0","?C","335.5","K","","","","","","-","","-","","-","","-"
"[O-][N+](=O)C1=CC=C(OCCBr)C=C1","-","-","-","1-(2-Bromoethoxy)-4-nitrobenzene","64.0","?C","337.0","K","","","","","","-","","-","","-","","-"
"OC(=O)C1=CC(=CC=C1)C1=CC=NC=C1","-","-","-","3-Pyrid-4-ylbenzoic acid","268.0","?C","541.0","K","","","","","","-","","-","","-","","-"
"NNC1=C(Cl)C=C(C=C1)C#N","-","-","-","3-Chloro-4-hydrazinobenzonitrile","127.0 - 128.0","?C","400.5","K","","","","","","-","","-","","-","","-"
"O=CC1=C(N=C2SCCN12)C1=CC=CC=C1","-","-","-","6-Phenyl-2,3-dihydroimidazo[2,1-b][1,3]thiazole-5-carbaldehyde","127.0 - 128.0","?C","400.5","K","","","","","","-","","-","","-","","-"
"CSC1=C(NN)C=C(C=C1)C(F)(F)F","-","-","-","1-[2-(methylthio)-5-(trifluoromethyl)phenyl]hydrazine","86.0 - 88.0","?C","360.0","K","","","","","","-","","-","","-","","-"
"COC1=CC(CC=C)=CC(C=O)=C1O","-","-","-","5-Allyl-2-hydroxy-3-methoxybenzaldehyde","48.0 - 52.0","?C","323.0","K","","","","","","-","","-","","-","","-"
"CCCC1=C(NCC)C=CC(C(C)=O)=C1O","-","-","-","1-[4-(Ethylamino)-2-hydroxy-3-propylphenyl]ethan-1-one","45.0 - 48.0","?C","319.5","K","","","","","","-","","-","","-","","-"
"OCC1=CC=CN=C1Cl","-","-","-","(2-Chloro-3-pyridinyl)methanol","54.0 - 55.0","?C","327.5","K","","","","","","-","","-","","-","","-"
"OCC1=CN2C=CC=CC2=N1","-","-","-","Imidazo[1,2-a]pyridin-2-ylmethanol","102.0 - 103.0","?C","375.5","K","","","","","","-","","-","","-","","-"
"OC(=O)C1=CC(=CC=C1)C1=NNC=C1","-","-","-","3-(1H-Pyrazol-3-yl)benzoic acid","204.0","?C","477.0","K","","","","","","-","","-","","-","","-"
"CC1=NN(C(=O)OC(C)(C)C)C(C)=C1C=O","-","-","-","tert-Butyl 4-formyl-3,5-dimethyl-1H-pyrazole-1-carboxylate","59.0 - 62.0","?C","333.5","K","","","","","","-","","-","","-","","-"
"BrC1=CN2C=CN=C2C=C1","-","-","-","6-Bromoimidazo[1,2-a]pyridine","76.0 - 78.0","?C","350.0","K","","","","","","-","","-","","-","","-"
"ClC(=O)C1=NOC(=C1)C1=CC=CO1","-","-","-","5-(2-Furyl)isoxazole-3-carbonyl chloride","74.0 - 76.0","?C","348.0","K","","","","","","-","","-","","-","","-"
"O=CC1=CC=C(C=C1)C1=CC=NC=C1","-","-","-","4-Pyridin-4-ylbenzaldehyde","101.0 - 104.0","?C","375.5","K","","","","","","-","","-","","-","","-"
"O=CC1=CC(=CC=C1)C1=CC=NC=C1","-","-","-","3-Pyrid-4-ylbenzaldehyde","48.0","?C","321.0","K","","","","","","-","","-","","-","","-"
"BrC1=CC=CC(=C1)C1=CN=CO1","-","-","-","5-(3-Bromophenyl)-1,3-oxazole","59.0 - 61.0","?C","333.0","K","","","","","","-","","-","","-","","-"
"ClC(=O)C1=CC2=C(S1)C=CC(Br)=C2","-","-","-","5-Bromo-1-benzothiophene-2-carbonyl chloride","99.0 - 102.0","?C","373.5","K","","","","","","-","","-","","-","","-"
"OC(=O)C1=C(N(N=C1)C1=CC=C(Cl)C=C1)C(F)(F)F","-","-","-","1-(4-Chlorophenyl)-5-(trifluoromethyl)-1H-pyrazole-4-carboxylic acid","137.0 - 138.0","?C","410.5","K","","","","","","-","","-","","-","","-"
"ClC(=O)C1=CC(Cl)=NC2=C1C=C(Br)C=C2","-","-","-","6-Bromo-2-chloroquinoline-4-carbonyl chloride","140.0 - 142.0","?C","414.0","K","","","","","","-","","-","","-","","-"
"CC1=CC=CC2=C1ON=C2O","-","-","-","7-Methylbenzo[d]isoxazol-3-ol","155.0 - 157.0","?C","429.0","K","","","","","","-","","-","","-","","-"
"ClC1=CC=C2SCC(C=O)=C(Cl)C2=C1","-","-","-","4,6-Dichloro-2H-1-benzothiine-3-carbaldehyde","84.0 - 86.0","?C","358.0","K","","","","","","-","","-","","-","","-"
"CC1=CC(=NO1)C1=C(C(O)=O)C(C)=NO1","-","-","-","3-Methyl-5-(5-methylisoxazol-3-yl)isoxazole-4-carboxylic acid","167.0","?C","440.0","K","","","","","","-","","-","","-","","-"
"O=CC1=CC=C(CN2CCOCC2)C=C1","-","-","-","4-(Morpholinomethyl)benzaldehyde","53.0 - 56.0","?C","327.5","K","","","","","","-","","-","","-","","-"
"OC(=O)C1=CC(=CC=C1)C1=CC=CN=C1","-","-","-","3-Pyrid-3-ylbenzoic acid","202.0 - 206.0","?C","477.0","K","","","","","","-","","-","","-","","-"
"CC1=CC=C(C)N1C1=CC=CC=C1C(O)=O","-","-","-","2-(2,5-Dimethyl-1H-pyrrol-1-yl)benzoic acid","125.0","?C","398.0","K","","","","","","-","","-","","-","","-"
"OCC1=CC=C(C=C1)C1=CC=CN=C1","-","-","-","(4-Pyrid-3-ylphenyl)methanol","106.0 - 107.0","?C","379.5","K","","","","","","-","","-","","-","","-"
"BrC1=CC=C(C=C1)C1=CC=CS1","-","-","-","2-(4-Bromophenyl)thiophene","95.0 - 96.0","?C","368.5","K","","","","","","-","","-","","-","","-"
"OC(=O)C1=CC=C(C=C1)C1=CC=CN=C1","-","-","-","4-Pyrid-3-ylbenzoic acid","271.0 - 274.0","?C","545.5","K","","","","","","-","","-","","-","","-"
"BrC1=CC=C(S1)C1=CC=NO1","-","-","-","5-(5-Bromo-2-thienyl)isoxazole","66.0 - 67.0","?C","339.5","K","","","","","","-","","-","","-","","-"
"CC1=NC(=CS1)C1=CC=CC(C=O)=C1","-","-","-","3-(2-Methyl-thiazol-4-yl)-benzaldehyde","76.0 - 80.0","?C","351.0","K","","","","","","-","","-","","-","","-"
"ClS(=O)(=O)C1=CC=C(S1)C1=CC=CC=C1","-","-","-","5-Phenyl-2-thiophenesulfonyl chloride","85.0 - 87.0","?C","359.0","K","","","","","","-","","-","","-","","-"
"CN1C=CN=C1I","-","-","-","2-Iodo-1-methyl-1H-imidazole","87.0 - 89.0","?C","361.0","K","","","","","","-","","-","","-","","-"
"OC(=O)C1=CC=CC=C1N1C=CC=N1","-","-","-","2-(1H-Pyrazol-1-yl)benzoic acid","190.0 - 193.0","?C","464.5","K","","","","","","-","","-","","-","","-"
"COC(=O)C1=CC=C(C=C1)N1CCCC1","-","-","-","Methyl 4-pyrrolidin-1-ylbenzoate","141.0 - 143.0","?C","415.0","K","","","","","","-","","-","","-","","-"
"O=CC1=CC=C(C=C1)N1CCCC1","-","-","-","4-(1-Pyrrolidinyl)benzaldehyde","85.0","?C","358.0","K","","","","","","-","","-","","-","","-"
"ONC(=O)C1=CC=C(Cl)C=C1O","-","-","-","4-Chloro-N,2-dihydroxybenzamide","195.0 - 199.0","?C","470.0","K","","","","","","-","","-","","-","","-"
"CC1=C(NS(C)(=O)=O)C=C(N)C=C1","-","-","-","N-(5-Amino-2-methylphenyl)methanesulfonamide","170.0 - 172.0","?C","444.0","K","","","","","","-","","-","","-","","-"
"OC1=C(C=NC=C1)[N+]([O-])=O","-","-","-","4-Hydroxy-3-nitropyridine","271.0 - 273.0","?C","545.0","K","","","","","","-","","-","","-","","-"
"[O-][N+](=O)C1=CC=CC(NC2=NC(Cl)=C(C#N)C(=C2)C(F)(F)F)=C1","-","-","-","2-Chloro-6-(3-nitroanilino)-4-(trifluoromethyl)nicotinonitrile","276.0 - 279.0","?C","550.5","K","","","","","","-","","-","","-","","-"
"OC(=O)C=CC1=CC=C(OC2=CC=CC=C2)N=C1","-","-","-","3-(6-Phenoxy-3-pyridyl)acrylic acid","204.0 - 206.0","?C","478.0","K","","","","","","-","","-","","-","","-"
"NC1=CC=CC(C(O)=O)=C1C(O)=O","-","-","-","3-Aminophthalic acid","170.0 - 180.0","?C","448.0","K","","","","","","-","","-","","-","","-"
"COC1=CC=CC=C1P(C1=CC=CC=C1OC)C1=CC=CC=C1OC","-","-","-","Tris(2-methoxyphenyl)phosphine","204.0 - 208.0","?C","479.0","K","","","","","","-","","-","","-","","-"
"COCCCN1C(=S)NN=C1C1=CC=C(C=C1)C(C)(C)C","-","-","-","3-[4-(tert-Butyl)phenyl]-4-(3-methoxypropyl)-4,5-dihydro-1H-1,2,4-triazole-5-thione","116.0 - 118.0","?C","390.0","K","","","","","","-","","-","","-","","-"
"ClC1=NC=NC2=C1C=CS2","-","-","-","4-Chlorothieno[2,3-d]pyrimidine","105.0","?C","378.0","K","","","","","","-","","-","","-","","-"
"[O-][N+](=O)C1=CC2=C(C=C1)N(CC2)S(=O)(=O)C1=CC=CC=C1","-","-","-","5-Nitro-1-(phenylsulfonyl)indoline","127.5 - 130.0","?C","401.8","K","","","","","","-","","-","","-","","-"
"NC(=NO)C1=CC=C(C=C1)C(F)(F)F","-","-","-","N'-Hydroxy-4-(trifluoromethyl)benzenecarboximidamide","125.0 - 128.0","?C","399.5","K","","","","","","-","","-","","-","","-"
"CC(C)(C)C1=CC=C(C=C1)S(=O)(=O)NCCBr","-","-","-","N1-(2-Bromoethyl)-4-(tert-butyl)benzene-1-sulfonamide","76.0 - 78.0","?C","350.0","K","","","","","","-","","-","","-","","-"
"CCC1(CCCCN(C)C1=O)C1=CC(O)=CC=C1","-","-","-","3-Ethyl-3-(3-hydroxyphenyl)-1-methylazepan-2-one","172.0 - 176.0","?C","447.0","K","","","","","","-","","-","","-","","-"
"CN1N=CC(Br)=C1NC(=O)CCl","-","-","-","N-(4-Bromo-1-methyl-1H-pyrazol-5-yl)-2-chloroacetamide","137.0 - 139.0","?C","411.0","K","","","","","","-","","-","","-","","-"
"CSC1=NC(=NC(N)=N1)C1=CC(Cl)=CC(Cl)=C1","-","-","-","4-(3,5-Dichlorophenyl)-6-(methylthio)-1,3,5-triazin-2-amine","214.0 - 216.0","?C","488.0","K","","","","","","-","","-","","-","","-"
"CCOC(=O)C1=CSC(NC(=O)CCl)=N1","-","-","-","Ethyl 2-[(2-chloroacetyl)amino]-1,3-thiazole-4-carboxylate","208.0 - 210.0","?C","482.0","K","","","","","","-","","-","","-","","-"
"BrCC(=O)C1=CC=CC2=C1OCCCO2","-","-","-","2-Bromo-1-(3,4-dihydro-2H-1,5-benzodioxepin-6-yl)-1-ethanone","55.0 - 56.0","?C","328.5","K","","","","","","-","","-","","-","","-"
"CC(=O)C1=CC2=C(O1)C=CC(Cl)=C2","-","-","-","1-(5-Chlorobenzo[b]furan-2-yl)ethan-1-one","97.0 - 98.0","?C","370.5","K","","","","","","-","","-","","-","","-"
"NCCSC1=CC(=NC2=CC=CC=C12)C(F)(F)F","-","-","-","2-{[2-(Trifluoromethyl)-4-quinolyl]thio}ethylamine","97.0 - 99.0","?C","371.0","K","","","","","","-","","-","","-","","-"
"CC(=O)C1=C(C)N=C(S1)C1=CC=CC=C1","-","-","-","1-(4-Methyl-2-phenyl-1,3-thiazol-5-yl)ethan-1-one","67.0 - 68.0","?C","340.5","K","","","","","","-","","-","","-","","-"
"CC(=O)C1=CC=C(O1)C1=C(OC(F)(F)F)C=CC=C1","-","-","-","1-{5-[2-(Trifluoromethoxy)phenyl]-2-furyl}ethan-1-one","40.0 - 47.0","?C","316.5","K","","","","","","-","","-","","-","","-"
"CC(=O)C1=CSC(=N1)C1=CC=C(C=C1)C(F)(F)F","-","-","-","1-{2-[4-(Trifluoromethyl)phenyl]-1,3-thiazol-4-yl}ethan-1-one","66.0","?C","339.0","K","","","","","","-","","-","","-","","-"
"COC1=CC=C(NC(=O)CS)C=C1","-","-","-","N1-(4-Methoxyphenyl)-2-mercaptoacetamide","118.0 - 119.0","?C","391.5","K","","","","","","-","","-","","-","","-"
"FC1=CC=C(NC(=O)CS)C=C1","-","-","-","N1-(4-Fluorophenyl)-2-mercaptoacetamide","92.0 - 94.0","?C","366.0","K","","","","","","-","","-","","-","","-"
"NS(=O)(=O)C1=C(Cl)SC(Cl)=C1","-","-","-","2,5-Dichlorothiophene-3-sulfonamide","131.0 - 133.0","?C","405.0","K","","","","","","-","","-","","-","","-"
"CCCC1=CC(C(C)=O)=C(O)C=C1O","-","-","-","1-(2,4-dihydroxy-5-propylphenyl)ethan-1-one","99.0 - 101.0","?C","373.0","K","","","","","","-","","-","","-","","-"
"CCOC1OC2C(CO)OC(C2O1)N1C=NC2=C1N=CN=C2N","-","-","-","[6-(6-Amino-9H-purin-9-yl)-2-ethoxytetrahydrofuro[3,4-d][1,3]dioxol-4-yl]methanol","228.0 - 231.0","?C","502.5","K","","","","","","-","","-","","-","","-"
"CC1=CC=C(C=C1)C(=O)C=CC1=CC(=CC=C1)[N+]([O-])=O","-","-","-","1-(4-Methylphenyl)-3-(3-nitrophenyl)prop-2-en-1-one","134.0 - 137.0","?C","408.5","K","","","","","","-","","-","","-","","-"
"CC(=O)C1=C(C)ON=C1C1=C(Cl)C(Cl)=CC=C1","-","-","-","1-[3-(2,3-Dichlorophenyl)-5-methyl-4-isoxazolyl]-1-ethanone","62.0 - 64.0","?C","336.0","K","","","","","","-","","-","","-","","-"
"CC(=O)C1=C(C)ON=C1C1=C(Cl)C=CC=C1Cl","-","-","-","1-[3-(2,6-Dichlorophenyl)-5-methylisoxazol-4-yl]ethan-1-one","72.0 - 74.0","?C","346.0","K","","","","","","-","","-","","-","","-"
"CC(=O)NC1=CC=C(OC(F)(F)F)C=C1","-","-","-","N1-[4-(Trifluoromethoxy)phenyl]acetamide","115.0 - 117.0","?C","389.0","K","","","","","","-","","-","","-","","-"
"FC1=CC=CC(OC2=CC=CC=C2)=C1C#N","-","-","-","2-Fluoro-6-phenoxybenzonitrile","92.0 - 96.0","?C","367.0","K","","","","","","-","","-","","-","","-"
"ClC1=CC=C2N=C(C=O)N=C(C3=CC=CC=C3Cl)C2=C1","-","-","-","6-Chloro-4-(2-chlorophenyl)quinazoline-2-carbaldehyde","159.0 - 160.0","?C","432.5","K","","","","","","-","","-","","-","","-"
"COC1=CC=C(C=C1)C1=CC=C(S1)C=O","-","-","-","5-(4-Methoxyphenyl)thiophene-2-carbaldehyde","118.0 - 119.0","?C","391.5","K","","","","","","-","","-","","-","","-"
"COC1=CC=C(C=C1CCl)C(C)=O","-","-","-","1-[3-(Chloromethyl)-4-methoxyphenyl]ethan-1-one","116.0 - 118.0","?C","390.0","K","","","","","","-","","-","","-","","-"
"ClCC(=O)NC1=C(Cl)C=C(Cl)C=C1","-","-","-","N1-(2,4-Dichlorophenyl)-2-chloroacetamide","105.0 - 108.0","?C","379.5","K","","","","","","-","","-","","-","","-"
"ClCCC(=O)N1CCC2=C1C=CC=C2","-","-","-","3-Chloro-1-(2,3-dihydro-1H-indol-1-yl)propan-1-one","83.0 - 85.0","?C","357.0","K","","","","","","-","","-","","-","","-"
"ClCC(=O)NC1=CC=C(Cl)C=C1","-","-","-","N1-(4-Chlorophenyl)-2-chloroacetamide","168.0 - 170.0","?C","442.0","K","","","","","","-","","-","","-","","-"
"CC1=CC(CCl)=C(CCl)C=C1C","-","-","-","1,2-Bis(chloromethyl)-4,5-dimethylbenzene","104.0 - 106.0","?C","378.0","K","","","","","","-","","-","","-","","-"
"NCC1=NOC(=C1)C1=CC=CO1","-","-","-","[5-(2-Furyl)isoxazol-3-yl]methylamine","46.0 - 49.0","?C","320.5","K","","","","","","-","","-","","-","","-"
"CC1=CC=C(C=C1)C1=NNC(N)=C1","-","-","-","3-(4-Methylphenyl)-1H-pyrazol-5-amine","153.0 - 154.0","?C","426.5","K","","","","","","-","","-","","-","","-"
"O1C=NC=C1C1=CC=NC=C1","-","-","-","5-(4-Pyridyl)-1,3-oxazole","127.0 - 128.0","?C","400.5","K","","","","","","-","","-","","-","","-"
"ClCCCCN1C2=CC=CC3=CC=CC(=C23)S1(=O)=O","-","-","-","2-(4-Chlorobutyl)-1lambda6-naphtho[1,8-cd]isothiazole-1,1(2H)-dione","38.0 - 40.0","?C","312.0","K","","","","","","-","","-","","-","","-"
"CC1=CC=C(F)C(C=O)=C1Cl","-","-","-","2-Chloro-6-fluoro-3-methylbenzaldehyde","46.0 - 50.0","?C","321.0","K","","","","","","-","","-","","-","","-"
"COC1=C(C=CC=C1)P(CCP(C1=CC=CC=C1)C1=C(OC)C=CC=C1)C1=CC=CC=C1","-","-","-","(1R,2R)-Bis[(2-methoxyphenyl)phenylphosphino]ethane","102.0 - 104.0","?C","376.0","K","","","","","","-","","-","","-","","-"
"COC1=CC=C(C=O)C=N1","-","-","-","6-Methoxy-3-pyridinecarboxaldehyde","46.0 - 54.0","?C","323.0","K","","","","","","-","","-","","-","","-"
"S=C1NN=CC(=S)N1","-","-","-","2,3,4,5-Tetrahydro-1,2,4-triazine-3,5-dithione","209.0 - 210.0","?C","482.5","K","","","","","","-","","-","","-","","-"
"FC(F)(F)C1=CC=C(C=C1)N1N=CC(Cl)=C(Cl)C1=O","-","-","-","4,5-Dichloro-2-[4-(trifluoromethyl)phenyl]pyridazin-3(2H)-one","139.0 - 140.0","?C","412.5","K","","","","","","-","","-","","-","","-"
"CC1=C(SC(=N1)C1=CC=CC=C1)C(O)=O","-","-","-","4-Methyl-2-phenyl-1,3-thiazole-5-carboxylic acid","214.0 - 215.0","?C","487.5","K","","","","","","-","","-","","-","","-"
"N#CC(N1CCCCC1)C1=CC=CC=C1","-","-","-","2-Phenyl-2-piperidinoacetonitrile","62.0 - 63.0","?C","335.5","K","","","","","","-","","-","","-","","-"
"CC(=O)NC1=CC=C(C=C1N)C(F)(F)F","-","-","-","N1-[2-Amino-4-(trifluoromethyl)phenyl]acetamide","141.0 - 143.0","?C","415.0","K","","","","","","-","","-","","-","","-"
"ClC1=CC=C(C=C1)P(=O)(C1=CC=C(Cl)C=C1)C1=CC=C(Cl)C=C1","-","-","-","Tri(4-chlorophenyl)phosphine oxide","176.0 - 178.0","?C","450.0","K","","","","","","-","","-","","-","","-"
"NC(=S)C1=CC(Cl)=CC=C1","-","-","-","3-Chlorobenzenecarbothioamide","110.0 - 113.0","?C","384.5","K","","","","","","-","","-","","-","","-"
"NC(=S)CCN1C=CC=C(C1=O)C(F)(F)F","-","-","-","3-[2-oxo-3-(Trifluoromethyl)-1,2-dihydropyridin-1-yl]propanethioamide","153.5 - 154.9","?C","427.2","K","","","","","","-","","-","","-","","-"
"NC(CSC1=NC=CC=C1)=NO","-","-","-","N'-Hydroxy-2-(pyridin-2-ylthio)ethanimidamide","100.0","?C","373.0","K","","","","","","-","","-","","-","","-"
"OC(=O)C1=CC=CC2=CC=CC(C=O)=C12","-","-","-","1,8-Naphthalaldehydic acid","160.0 - 167.0","?C","436.5","K","","","","","","-","","-","","-","","-"
"CC1=CC=CC(C)=C1C(N)=O","-","-","-","2,6-DIMETHYLBENZAMIDE","136.0 - 138.0","?C","410.0","K","","","","","","-","","-","","-","","-"
"CC1=CC=C(C)N1CC1CCNCC1","-","-","-","4-[(2,5-Dimethyl-1H-pyrrol-1-yl)methyl]piperidine","50.0","?C","323.0","K","","","","","","-","","-","","-","","-"
"CC(=CC1=CC=C(F)C=C1)[N+]([O-])=O","-","-","-","1-fluoro-4-(2-nitroprop-1-enyl)benzene","64.0 - 67.0","?C","338.5","K","","","","","","-","","-","","-","","-"
"CN1N=C(C(=C1N)C1=CC=CC=C1)C(F)(F)F","-","-","-","1-Methyl-4-phenyl-3-(trifluoromethyl)-1H-pyrazol-5-amine","85.0 - 89.0","?C","360.0","K","","","","","","-","","-","","-","","-"
"COC1=CC(C(O)=O)=C(C(OC)=C1OC)[N+]([O-])=O","-","-","-","3,4,5-Trimethoxy-2-nitrobenzoic acid","166.0 - 169.0","?C","440.5","K","","","","","","-","","-","","-","","-"
"CCOC(=O)C1=CN2C=CSC2=N1","-","-","-","Ethyl imidazo[2,1-b][1,3]thiazole-6-carboxylate","87.0 - 91.0","?C","362.0","K","","","","","","-","","-","","-","","-"
"CC1=NC(=NO1)C1=CC=C(C=C1)C(O)=O","-","-","-","4-(5-Methyl-1,2,4-oxadiazol-3-yl)benzoic acid","262.0 - 264.0","?C","536.0","K","","","","","","-","","-","","-","","-"
"CCOC(=O)C1=NNC(=C1)C1=CC=CO1","-","-","-","Ethyl 5-(2-furyl)-1H-pyrazole-3-carboxylate","137.0 - 138.0","?C","410.5","K","","","","","","-","","-","","-","","-"
"OC(=O)C1=CC=CC(=C1)C1=CN=CO1","-","-","-","3-(1,3-Oxazol-5-yl)benzoic acid","259.0 - 261.0","?C","533.0","K","","","","","","-","","-","","-","","-"