"SMILES","CASRN","EXTERNALID","N","NAME","Melting Point","UNIT {Melting Point}","Melting Point {measured, converted}","UNIT {Melting Point}","Dataset","comment (property)","comment (chemical)","measurement method","Pressure","UNIT {Pressure}","Som set numeric condition","UNIT {Som set numeric condition}","Resp set numeric condition","UNIT {Resp set numeric condition}","Quality code","UNIT {Quality code}"
"CN1C=C(N=C1C)S(Cl)(=O)=O","-","-","-","1,2-Dimethyl-1H-imidazole-4-sulfonyl chloride","91.0 - 94.0","?C","365.5","K","","","","","","-","","-","","-","","-"
"OC(=O)C1=C2NC(=O)C(=O)C2=CC=C1","-","-","-","2,3-dioxoindoline-7-carboxylic acid","268.0 - 275.0","?C","544.5","K","","","","","","-","","-","","-","","-"
"COC(=O)C1=CC=C2SN=NC2=C1","-","-","-","Methyl 1,2,3-benzothiadiazole-5-carboxylate","118.0 - 120.0","?C","392.0","K","","","","","","-","","-","","-","","-"
"COC(=O)C1=CC2=CC=CN=C2C=C1","-","-","-","methyl quinoline-6-carboxylate","88.0 - 89.0","?C","361.5","K","","","","","","-","","-","","-","","-"
"NNC(=O)C1=CC2=C(N1)C=CC(OCC1=CC=CC=C1)=C2","-","-","-","5-(Benzyloxy)-1H-indole-2-carbohydrazide","219.0 - 221.0","?C","493.0","K","","","","","","-","","-","","-","","-"
"CC(C)NC1=C(C=C(C=C1)C#N)[N+]([O-])=O","-","-","-","4-(Isopropylamino)-3-nitrobenzonitrile","113.0 - 115.0","?C","387.0","K","","","","","","-","","-","","-","","-"
"CC(C)N1N=NC2=CC(=CC=C12)C(O)=O","-","-","-","1-Isopropyl-1H-1,2,3-benzotriazole-5-carboxylic acid","222.0 - 227.0","?C","497.5","K","","","","","","-","","-","","-","","-"
"CC(C)(C)OC(=O)NCC1=NN=C(S)N1C1CC1","-","-","-","tert-Butyl N-[(4-cyclopropyl-5-mercapto-4H-1,2,4-triazol-3-yl)methyl]carbamate","193.0 - 194.0","?C","466.5","K","","","","","","-","","-","","-","","-"
"CC(C)(C)OC(=O)NCC1=NN=C(S)N1CC=C","-","-","-","tert-Butyl N-[(4-allyl-5-mercapto-4H-1,2,4-triazol-3-yl)methyl]carbamate","150.0 - 153.0","?C","424.5","K","","","","","","-","","-","","-","","-"
"SC1=NN=C(N1CC=C)C1=CC2=CC=CN=C2C=C1","-","-","-","4-Allyl-5-quinolin-6-yl-4H-1,2,4-triazole-3-thiol","211.0 - 214.0","?C","485.5","K","","","","","","-","","-","","-","","-"
"CN1C(SCC(O)=O)=NN=C1C1=CC2=CC=CN=C2C=C1","-","-","-","2-[(4-Methyl-5-quinolin-6-yl-4H-1,2,4-triazol-3-yl)thio]acetic acid","238.0 - 239.0","?C","511.5","K","","","","","","-","","-","","-","","-"
"OC(=O)C1=CC=C(CN2C=NC3=CC=CC=C23)C=C1","-","-","-","4-(1H-Benzimidazol-1-ylmethyl)benzoic acid","260.0 - 262.0","?C","534.0","K","","","","","","-","","-","","-","","-"
"OC(=O)CSC1=CC=NC2=CC(Cl)=CC=C12","-","-","-","2-[(7-Chloro-4-quinolinyl)sulfanyl]acetic acid","223.0 - 225.0","?C","497.0","K","","","","","","-","","-","","-","","-"
"O=CC1=CC=C(CN2C(=O)C3=C(C=CC=C3)C2=O)O1","-","-","-","5-[(1,3-Dioxo-1,3-dihydro-2H-isoindol-2-yl)methyl]-2-furaldehyde","125.0 - 126.0","?C","398.5","K","","","","","","-","","-","","-","","-"
"OC(=O)CC1=NOC2=CC=CC=C12","-","-","-","2-(1,2-Benzisoxazol-3-yl)acetic acid","123.0 - 125.0","?C","397.0","K","","","","","","-","","-","","-","","-"
"COC1=CC2=C(C=C1)C(CC(O)=O)=CO2","-","-","-","2-(6-Methoxy-1-benzofuran-3-yl)acetic acid","123.0 - 124.0","?C","396.5","K","","","","","","-","","-","","-","","-"
"CC1=C(N2C=CSC2=N1)C(O)=O","-","-","-","6-Methylimidazo[2,1-b][1,3]thiazole-5-carboxylic acid","164.0 - 165.0","?C","437.5","K","","","","","","-","","-","","-","","-"
"CCOC(=O)C1CCN(CC1)C1=CC=C(C=C1)C#N","-","-","-","Ethyl 1-(4-cyanophenyl)-4-piperidinecarboxylate","67.0 - 68.0","?C","340.5","K","","","","","","-","","-","","-","","-"
"OC(=O)C1=CC2=C(NCCC2)C=C1","-","-","-","1,2,3,4-Tetrahydro-6-quinolinecarboxylic acid","168.0 - 170.0","?C","442.0","K","","","","","","-","","-","","-","","-"
"CC1=CC(=CC(O)=N1)C(O)=O","-","-","-","2-Hydroxy-6-methylisonicotinic acid","240.0","?C","513.0","K","","","","","","-","","-","","-","","-"
"CCOC(=O)C1=CN=C(NCC2=CC=CC=C2)S1","-","-","-","Ethyl 2-(benzylamino)-1,3-thiazole-5-carboxylate","136.0 - 143.0","?C","412.5","K","","","","","","-","","-","","-","","-"
"NC(=S)C1=CC=C2OCCOC2=C1","-","-","-","2,3-Dihydro-1,4-benzodioxine-6-carbothioamide","140.2 - 144.0","?C","415.1","K","","","","","","-","","-","","-","","-"
"OC(=O)C1=CN=C(NCC2=CC=CC=C2)S1","-","-","-","2-(Benzylamino)-1,3-thiazole-5-carboxylic acid","163.0 - 164.0","?C","436.5","K","","","","","","-","","-","","-","","-"
"CN1N=C(C)C(C(O)=O)=C1Cl","-","-","-","5-Chloro-1,3-dimethyl-1H-pyrazole-4-carboxylic acid","195.0 - 198.0","?C","469.5","K","","","","","","-","","-","","-","","-"
"NNC(=O)C1CCN(CC1)C1=CC=C(C=C1)C#N","-","-","-","1-(4-Cyanophenyl)-4-piperidinecarbohydrazide","198.0 - 202.0","?C","473.0","K","","","","","","-","","-","","-","","-"
"OC(=O)C1=CC=C(C=C1)N1C=CC(=N1)C(F)(F)F","-","-","-","4-[3-(Trifluoromethyl)-1H-pyrazol-1-yl]benzoic acid","189.0 - 190.0","?C","462.5","K","","","","","","-","","-","","-","","-"
"ClC(=O)C1=NN=C(O1)C1=CC=CC=C1","-","-","-","5-Phenyl-1,3,4-oxadiazole-2-carbonyl chloride","80.0 - 90.0","?C","358.0","K","","","","","","-","","-","","-","","-"
"O=CC1=CC=CN1C1=CC=CC(=C1)C#N","-","-","-","3-(2-Formyl-1H-pyrrol-1-yl)benzonitrile","139.0 - 141.0","?C","413.0","K","","","","","","-","","-","","-","","-"
"CC1=C(SN=N1)C1=NN=C(S)N1C1CC1","-","-","-","4-Cyclopropyl-5-(4-methyl-1,2,3-thiadiazol-5-yl)-4H-1,2,4-triazole-3-thiol","212.0 - 213.0","?C","485.5","K","","","","","","-","","-","","-","","-"
"CC(C)(C)C(=O)NC1=CC=NC=C1C=O","-","-","-","N-(3-Formyl-4-pyridinyl)-2,2-dimethylpropanamide","60.0 - 64.0","?C","335.0","K","","","","","","-","","-","","-","","-"
"CCOC(=O)C1=CC(N)=C(NC)C=C1","-","-","-","Ethyl 3-amino-4-(methylamino)benzoate","87.0 - 88.0","?C","360.5","K","","","","","","-","","-","","-","","-"
"CCOC(=O)C1=CC2=C(C=C1)N(C)N=N2","-","-","-","Ethyl 1-methyl-1H-1,2,3-benzotriazole-5-carboxylate","105.0 - 108.0","?C","379.5","K","","","","","","-","","-","","-","","-"
"ClCC1=NC(=NO1)C1=CC=CS1","-","-","-","5-(Chloromethyl)-3-(2-thienyl)-1,2,4-oxadiazole","59.0 - 60.0","?C","332.5","K","","","","","","-","","-","","-","","-"
"CC1=C(N2C=CSC2=N1)C(=O)NN","-","-","-","6-Methylimidazo[2,1-b][1,3]thiazole-5-carbohydrazide","150.0","?C","423.0","K","","","","","","-","","-","","-","","-"
"NC1=CC=C(CN2CCS(=O)(=O)CC2)C=C1","-","-","-","4-(4'-Aminobenzyl)thiomorpholine 1,1-dioxide","156.0","?C","429.0","K","","","","","","-","","-","","-","","-"
"OC(=O)C1CN(CC2=CC=C(F)C=C2)C(=O)C1","-","-","-","1-(4-Fluorobenzyl)-5-oxo-3-pyrrolidinecarboxylic acid","150.0 - 151.0","?C","423.5","K","","","","","","-","","-","","-","","-"
"COC1=CC=C(CCN2CC(CC2=O)C(O)=O)C=C1OC","-","-","-","1-(3,4-Dimethoxyphenethyl)-5-oxo-3-pyrrolidinecarboxylic acid","127.0 - 131.0","?C","402.0","K","","","","","","-","","-","","-","","-"
"OC(=O)C1CN(CCC2=CC=C(Cl)C=C2)C(=O)C1","-","-","-","1-(4-Chlorophenethyl)-5-oxo-3-pyrrolidinecarboxylic acid","148.0 - 150.0","?C","422.0","K","","","","","","-","","-","","-","","-"
"CCOC(=O)C1=NC(=NO1)C1=CC=C(S1)S(Cl)(=O)=O","-","-","-","Ethyl 3-[5-(chlorosulfonyl)-2-thienyl]-1,2,4-oxadiazole-5-carboxylate","114.0 - 115.0","?C","387.5","K","","","","","","-","","-","","-","","-"
"CC1=NC(I)=C(I)N1","-","-","-","4,5-Diiodo-2-methyl-1H-imidazole","194.0 - 195.0","?C","467.5","K","","","","","","-","","-","","-","","-"
"CC1=NN=C(O1)C1=CC=CC(=C1)S(Cl)(=O)=O","-","-","-","3-(5-Methyl-1,3,4-oxadiazol-2-yl)benzenesulfonyl chloride","56.0 - 59.0","?C","330.5","K","","","","","","-","","-","","-","","-"
"ClCC(=O)NCC1=CC2=C(OCO2)C=C1","-","-","-","N-(1,3-Benzodioxol-5-ylmethyl)-2-chloroacetamide","91.4 - 93.8","?C","365.6","K","","","","","","-","","-","","-","","-"
"NC(=S)C1=CSC=C1","-","-","-","Thiophene-3-thioamide","96.0 - 98.0","?C","370.0","K","","","","","","-","","-","","-","","-"
"ClC1=CC2=NSN=C2C=C1CBr","-","-","-","5-(Bromomethyl)-6-chloro-2,1,3-benzothiadiazole","75.0 - 77.0","?C","349.0","K","","","","","","-","","-","","-","","-"
"CC(C)(C)C(=O)NC1=NC=CC=C1C=O","-","-","-","N-(3-Formyl-2-pyridinyl)-2,2-dimethylpropanamide","87.0 - 91.0","?C","362.0","K","","","","","","-","","-","","-","","-"
"CCOC(=O)C1=C(C)OC(N)=C(C#N)C1C1=CC=CC=C1","-","-","-","Ethyl 6-amino-5-cyano-2-methyl-4-phenyl-4H-pyran-3-carboxylate","189.0 - 190.0","?C","462.5","K","","","","","","-","","-","","-","","-"
"NC1=CC=CC=C1N1C=CC=N1","-","-","-","2-(1H-Pyrazol-1-yl)aniline","44.0 - 46.0","?C","318.0","K","","","","","","-","","-","","-","","-"
"ON=C(CBr)C1=CC=C(F)C=C1","-","-","-","2-Bromo-1-(4-fluorophenyl)-1-ethanone oxime","84.0 - 90.0","?C","360.0","K","","","","","","-","","-","","-","","-"
"OCC1=CN=C(S)N1CC1=CC=CC=C1","-","-","-","(1-Benzyl-2-sulfanyl-1H-imidazol-5-yl)methanol","238.0 - 240.0","?C","512.0","K","","","","","","-","","-","","-","","-"
"CCOC(=O)C1=CN2N=C(Cl)C=CC2=N1","-","-","-","Ethyl 6-chloroimidazo[1,2-b]pyridazine-2-carboxylate","156.0 - 157.0","?C","429.5","K","","","","","","-","","-","","-","","-"
"ClC1=CC=CC(CC(=O)C2=CC(=CC=C2)C#N)=C1","-","-","-","3-[2-(3-Chlorophenyl)acetyl]benzonitrile","87.5 - 90.8","?C","362.1","K","","","","","","-","","-","","-","","-"
"O=C(CC1=CC(OC2=CC=CC=C2)=CC=C1)C1=CC(=CC=C1)C#N","-","-","-","3-[2-(3-Phenoxyphenyl)acetyl]benzonitrile","63.7 - 65.5","?C","337.6","K","","","","","","-","","-","","-","","-"
"NC(=O)C1=CC=C(CC(=O)C2=CC=C(Cl)C=C2)C=C1","-","-","-","4-[2-(4-Chlorophenyl)-2-oxoethyl]benzamide","221.3 - 222.9","?C","495.1","K","","","","","","-","","-","","-","","-"
"CC1=C(C=CC=C1)C(=O)CC1=CC=C(C=C1)C(N)=O","-","-","-","4-[2-(2-Methylphenyl)-2-oxoethyl]benzamide","187.1 - 187.9","?C","460.5","K","","","","","","-","","-","","-","","-"
"O=C(CC1=CC=C(OC2=CC=CC=C2)C=C1)C1=CC=CC=C1","-","-","-","2-(4-Phenoxyphenyl)-1-phenyl-1-ethanone","58.3 - 59.9","?C","332.1","K","","","","","","-","","-","","-","","-"
"CCOC(=O)C1=C(C)OC(N)=C(C#N)C1C1=CC=C2OCCC2=C1","-","-","-","Ethyl 6-amino-5-cyano-4-(2,3-dihydro-1-benzofuran-5-yl)-2-methyl-4H-pyran-3-carboxylate","160.0 - 166.0","?C","436.0","K","","","","","","-","","-","","-","","-"
"CCOC(=O)C1=C(C)OC(N)=C(C#N)C1C1=CC=C(C=C1)N1CCOCC1","-","-","-","Ethyl 6-amino-5-cyano-2-methyl-4-(4-morpholinophenyl)-4H-pyran-3-carboxylate","152.0 - 159.0","?C","428.5","K","","","","","","-","","-","","-","","-"
"CCOC(=O)C1=CSC(=N1)C1=CC=C(Br)S1","-","-","-","Ethyl 2-(5-bromo-2-thienyl)-1,3-thiazole-4-carboxylate","97.0 - 101.0","?C","372.0","K","","","","","","-","","-","","-","","-"
"CC(C)(C)C(=O)NC1=C(C=NC=C1)C(O)=O","-","-","-","4-[(2,2-Dimethylpropanoyl)amino]nicotinic acid","250.0 - 254.0","?C","525.0","K","","","","","","-","","-","","-","","-"
"CNC1=CC=C(C=C1N)C#N","-","-","-","3-Amino-4-(methylamino)benzonitrile","139.0 - 142.0","?C","413.5","K","","","","","","-","","-","","-","","-"
"COC(=O)C1=CC2=C(NC=N2)C=C1","-","-","-","Methyl 1H-benzimidazole-5-carboxylate","139.0 - 143.0","?C","414.0","K","","","","","","-","","-","","-","","-"
"COC1=CC=C(C=C1)N1N=CC(C=O)=C1C","-","-","-","1-(4-Methoxyphenyl)-5-methyl-1H-pyrazole-4-carbaldehyde","80.0 - 82.0","?C","354.0","K","","","","","","-","","-","","-","","-"
"CC1=C(C=O)C=NN1C1=CC=C(F)C=C1","-","-","-","1-(4-Fluorophenyl)-5-methyl-1H-pyrazole-4-carbaldehyde","113.0 - 115.0","?C","387.0","K","","","","","","-","","-","","-","","-"
"CC1=C(C=O)C=NN1C1=CC=CC=C1C","-","-","-","5-Methyl-1-(2-methylphenyl)-1H-pyrazole-4-carbaldehyde","99.0 - 100.0","?C","372.5","K","","","","","","-","","-","","-","","-"
"ClC1=NC=CC2=C1C=CO2","-","-","-","4-Chlorofuro[3,2-c]pyridine","41.0 - 42.0","?C","314.5","K","","","","","","-","","-","","-","","-"
"CN=C1SC(CC(O)=O)C(=O)N1C","-","-","-","2-[3-Methyl-2-(methylimino)-4-oxo-1,3-thiazolan-5-yl]acetic acid","157.0 - 159.0","?C","431.0","K","","","","","","-","","-","","-","","-"
"NC1=NOC2=C1C=CC=C2","-","-","-","1,2-Benzisoxazol-3-amine","110.0 - 112.0","?C","384.0","K","","","","","","-","","-","","-","","-"
"COC1=CC=CC2=C1C(N)=NO2","-","-","-","4-Methoxy-1,2-benzisoxazol-3-amine","140.0 - 142.0","?C","414.0","K","","","","","","-","","-","","-","","-"
"COC(=O)C1=CC=C(OC)C(=C1)S(Cl)(=O)=O","-","-","-","Methyl 3-(chlorosulfonyl)-4-methoxybenzoate","126.0 - 128.0","?C","400.0","K","","","","","","-","","-","","-","","-"
"FC(F)(F)C1=CC(Br)=CC=C1S(Cl)(=O)=O","-","-","-","4-Bromo-2-(trifluoromethyl)benzenesulfonyl chloride","62.0 - 63.0","?C","335.5","K","","","","","","-","","-","","-","","-"
"CC(C)(C)C(=O)NC1=NC=CC=C1C(O)=O","-","-","-","2-[(2,2-Dimethylpropanoyl)amino]nicotinic acid","280.0","?C","553.0","K","","","","","","-","","-","","-","","-"
"CC1=C(C(O)=O)C(=NO1)C1=CC=C(F)C=C1","-","-","-","3-(4-Fluorophenyl)-5-methyl-4-isoxazolecarboxylic acid","197.0 - 200.0","?C","471.5","K","","","","","","-","","-","","-","","-"
"COC1=CC=C(C=C1)C1=NOC(C)=C1C(O)=O","-","-","-","3-(4-Methoxyphenyl)-5-methyl-4-isoxazolecarboxylic acid","190.0 - 195.0","?C","465.5","K","","","","","","-","","-","","-","","-"
"CC1=C(C(Cl)=O)C(=NO1)C1=CC=C(F)C=C1","-","-","-","3-(4-Fluorophenyl)-5-methyl-4-isoxazolecarbonyl chloride","51.0 - 55.0","?C","326.0","K","","","","","","-","","-","","-","","-"
"COC1=CC=C(C=C1)C1=NOC(C)=C1C(Cl)=O","-","-","-","3-(4-Methoxyphenyl)-5-methyl-4-isoxazolecarbonyl chloride","79.0 - 81.0","?C","353.0","K","","","","","","-","","-","","-","","-"
"CC1(C)CCC2=C(O1)C=CC(=C2)S(Cl)(=O)=O","-","-","-","2,2-Dimethyl-6-chromanesulfonyl chloride","92.0 - 94.0","?C","366.0","K","","","","","","-","","-","","-","","-"
"CC1=C(SC2=C1C=C(C)C=C2)C(=O)CBr","-","-","-","2-Bromo-1-(3,5-dimethyl-1-benzothiophen-2-yl)-1-ethanone","123.0 - 125.0","?C","397.0","K","","","","","","-","","-","","-","","-"
"CC1=C(C=NN1C1=CC=CC=C1C)C(O)=O","-","-","-","5-Methyl-1-(2-methylphenyl)-1H-pyrazole-4-carboxylic acid","142.0 - 147.0","?C","417.5","K","","","","","","-","","-","","-","","-"
"ClC1=NOC2=C1C=CC=C2","-","-","-","3-Chloro-1,2-benzisoxazole","31.0","?C","304.0","K","","","","","","-","","-","","-","","-"
"COC1=CC=C(C=C1)C1=C(N=CO1)C(O)=O","-","-","-","5-(4-Methoxyphenyl)-1,3-oxazole-4-carboxylic acid","147.0 - 151.0","?C","422.0","K","","","","","","-","","-","","-","","-"
"COC1=CC=C(C=C1)C1=C(N=CO1)C(Cl)=O","-","-","-","5-(4-Methoxyphenyl)-1,3-oxazole-4-carbonyl chloride","97.0 - 99.0","?C","371.0","K","","","","","","-","","-","","-","","-"
"ClS(=O)(=O)C1=CC=C(C=C1)S(=O)(=O)N1CCOCC1","-","-","-","4-(Morpholine-4-sulfonyl)-benzenesulfonyl chloride","150.0 - 152.0","?C","424.0","K","","","","","","-","","-","","-","","-"
"ClS(=O)(=O)C1=CC=C(C=C1)S(=O)(=O)N1CCCC1","-","-","-","4-(Pyrrolidine-1-sulfonyl)-benzenesulfonyl chloride","133.0 - 134.0","?C","406.5","K","","","","","","-","","-","","-","","-"
"OC(=O)C1=CC(O)=C(I)C=C1","-","-","-","3-Hydroxy-4-iodobenzoic acid","227.0 - 229.0","?C","501.0","K","","","","","","-","","-","","-","","-"
"CCOC(=O)C1=C(C)N(C2CC2)C(C)=C1C=O","-","-","-","Ethyl 1-cyclopropyl-4-formyl-2,5-dimethyl-1H-pyrrole-3-carboxylate","75.0 - 80.0","?C","350.5","K","","","","","","-","","-","","-","","-"
"CC1=C(SC2=C1C=C(Cl)C=C2)C(O)=O","-","-","-","5-Chloro-3-methyl-1-benzothiophene-2-carboxylic acid","290.0 - 292.0","?C","564.0","K","","","","","","-","","-","","-","","-"
"OC(=O)C1=CSC=C1S(=O)(=O)C1=CC=C(Cl)C=C1","-","-","-","4-[(4-Chlorophenyl)sulfonyl]-3-thiophenecarboxylic acid","214.0 - 216.0","?C","488.0","K","","","","","","-","","-","","-","","-"
"CC(C)(C)OC(=O)NCC1=CC=C(Br)S1","-","-","-","tert-Butyl N-[(5-bromo-2-thienyl)methyl]carbamate","51.0 - 54.0","?C","325.5","K","","","","","","-","","-","","-","","-"
"COC(=O)C1=CC(C)=C(S1)S(Cl)(=O)=O","-","-","-","Methyl 5-(chlorosulfonyl)-4-methyl-2-thiophenecarboxylate","40.0 - 41.0","?C","313.5","K","","","","","","-","","-","","-","","-"
"OC(=O)C1=CC2=C(S1)C=CC(=C2)[N+]([O-])=O","-","-","-","5-Nitro-1-benzothiophene-2-carboxylic acid","238.0 - 241.0","?C","512.5","K","","","","","","-","","-","","-","","-"
"COC(=O)C1=C(C(=CS1)S(=O)(=O)C(C)C)S(Cl)(=O)=O","-","-","-","Methyl 3-(chlorosulfonyl)-4-(isopropylsulfonyl)-2-thiophenecarboxylate","128.0 - 129.0","?C","401.5","K","","","","","","-","","-","","-","","-"
"NC1=C(N=NS1)C1=CC=C(C=C1)C(F)(F)F","-","-","-","4-[4-(Trifluoromethyl)phenyl]-1,2,3-thiadiazol-5-amine","125.0 - 128.0","?C","399.5","K","","","","","","-","","-","","-","","-"
"COC(=O)C1=C(C)OC(C=O)=C1","-","-","-","Methyl 5-formyl-2-methyl-3-furoate","83.0","?C","356.0","K","","","","","","-","","-","","-","","-"
"CC1=NC(=CC=N1)C1=CC=CC(=C1)S(Cl)(=O)=O","-","-","-","3-(2-Methyl-4-pyrimidinyl)benzenesulfonyl chloride","174.0 - 175.0","?C","447.5","K","","","","","","-","","-","","-","","-"
"CN1N=C(C)C(Br)=C1C(O)=O","-","-","-","4-Bromo-1,3-dimethyl-1H-pyrazole-5-carboxylic acid","225.0 - 226.0","?C","498.5","K","","","","","","-","","-","","-","","-"
"CC1=NN(C(C)=C1C(O)=O)C1=CC=CC=C1","-","-","-","3,5-dimethyl-1-phenyl-1H-pyrazole-4-carboxylic acid","199.0 - 201.0","?C","473.0","K","","","","","","-","","-","","-","","-"
"CCOC(=O)C1=C(C)N=C(Br)S1","-","-","-","Ethyl 2-bromo-4-methyl-1,3-thiazole-5-carboxylate","65.0 - 66.0","?C","338.5","K","","","","","","-","","-","","-","","-"
"CC1=C(SC(Br)=N1)C(O)=O","-","-","-","2-Bromo-4-methyl-1,3-thiazole-5-carboxylic acid","149.0 - 150.0","?C","422.5","K","","","","","","-","","-","","-","","-"
"[O-][N+](=O)C1=CC2=C(SC(=C2)C(Cl)=O)C=C1","-","-","-","5-Nitro-1-benzothiophene-2-carbonyl chloride","157.0 - 158.0","?C","430.5","K","","","","","","-","","-","","-","","-"
"CC1=CC=C(C#N)C(=C1)S(Cl)(=O)=O","-","-","-","2-Cyano-5-methylbenzenesulfonyl chloride","71.0 - 73.0","?C","345.0","K","","","","","","-","","-","","-","","-"
"NC1=C(SC2=NC=CC=C12)C(O)=O","-","-","-","3-Aminothieno[2,3-b]pyridine-2-carboxylic acid","202.0 - 204.0","?C","476.0","K","","","","","","-","","-","","-","","-"
"CC1=C(CO)C=NN1C1=CC=C(F)C=C1","-","-","-","[1-(4-Fluorophenyl)-5-methyl-1H-pyrazol-4-yl]methanol","120.0 - 121.0","?C","393.5","K","","","","","","-","","-","","-","","-"
"NS(=O)(=O)C1=C(Cl)N=C2SC=CN12","-","-","-","6-Chloro-imidazo[2,1-b]thiazole-5-sulfonic acid amide","176.0 - 177.0","?C","449.5","K","","","","","","-","","-","","-","","-"
"CC1=C(SC=N1)C(O)=O","-","-","-","4-Methyl-thiazole-5-carboxylic acid","254.0 - 255.0","?C","527.5","K","","","","","","-","","-","","-","","-"
"NC(=O)C1=C2OCCOC2=CC=C1","-","-","-","2,3-Dihydro-1,4-benzodioxine-5-carboxamide","130.0 - 132.0","?C","404.0","K","","","","","","-","","-","","-","","-"
"CC1=CC(Br)=C(N)C=C1OCC1=CC=CC=C1","-","-","-","5-(Benzyloxy)-2-bromo-4-methylaniline","137.0 - 138.0","?C","410.5","K","","","","","","-","","-","","-","","-"
"CN1N=CC(Br)=C1C=O","-","-","-","4-Bromo-1-methyl-1H-pyrazole-5-carbaldehyde","70.0","?C","343.0","K","","","","","","-","","-","","-","","-"
"BrCC(=O)C(C1=CC=CC=C1)C1=CC=CC=C1","-","-","-","3-Bromo-1,1-diphenylacetone","64.0 - 66.0","?C","338.0","K","","","","","","-","","-","","-","","-"
"SC1=NN=C2C=CC=CN12","-","-","-","[1,2,4]Triazolo[4,3-a]pyridine-3-thiol","213.0 - 214.0","?C","486.5","K","","","","","","-","","-","","-","","-"
"OC(=O)C1=CC=C(C=C1)C1=CSC=C1","-","-","-","4-(3-Thienyl)benzoic acid","282.0 - 283.0","?C","555.5","K","","","","","","-","","-","","-","","-"
"CC1=C(SC2=CC=C(Cl)C=C12)S(Cl)(=O)=O","-","-","-","5-Chloro-3-methylbenzo[b]thiophene-2-sulfonyl chloride","153.0","?C","426.0","K","","","","","","-","","-","","-","","-"
"NC1=CC2=C(C=CS2(=O)=O)C=C1","-","-","-","6-Aminobenzo[b]thiophene 1,1-dioxide","150.0","?C","423.0","K","","","","","","-","","-","","-","","-"
"ClC1=CC=C2SC=C(CBr)C2=C1","-","-","-","3-(Bromomethyl)-5-chlorobenzo[b]thiophene","129.0 - 130.0","?C","402.5","K","","","","","","-","","-","","-","","-"
"COC(=O)CC1=CSC2=C1C=C(Cl)C=C2","-","-","-","Methyl 2-(5-chlorobenzo[b]thiophen-3-yl)acetate","55.0 - 56.0","?C","328.5","K","","","","","","-","","-","","-","","-"
"CC1=C(SC2=CC=CC=C12)C(=O)CBr","-","-","-","2-Bromo-1-(3-methylbenzo[b]thiophen-2-yl)ethan-1-one","98.0 - 99.0","?C","371.5","K","","","","","","-","","-","","-","","-"
"CC1=C(SC2=CC=C(Cl)C=C12)C(=O)CBr","-","-","-","2-Bromo-1-(5-chloro-3-methylbenzo[b]thiophen-2-yl)ethan-1-one","154.0 - 156.0","?C","428.0","K","","","","","","-","","-","","-","","-"