"SMILES","CASRN","EXTERNALID","N","NAME","Melting Point","UNIT {Melting Point}","Melting Point {measured, converted}","UNIT {Melting Point}","Dataset","comment (property)","comment (chemical)","measurement method","Pressure","UNIT {Pressure}","Som set numeric condition","UNIT {Som set numeric condition}","Resp set numeric condition","UNIT {Resp set numeric condition}","Quality code","UNIT {Quality code}"
"ClC1=CC=C(OCCCI)C=C1","-","-","-","1-Chloro-4-(3-iodopropoxy)benzene","31.0 - 33.0","?C","305.0","K","","","","","","-","","-","","-","","-"
"CC1=CC=C(O)C(C)=N1","-","-","-","2,6-Dimethylpyridin-3-ol","210.0 - 212.0","?C","484.0","K","","","","","","-","","-","","-","","-"
"ClCC(=O)NC1=C(C=C(Cl)C=C1)C(=O)C1=CC=CC=C1Cl","-","-","-","2-Chloro-N-[4-chloro-2-(2-chlorobenzoyl)phenyl]acetamide","161.0 - 163.0","?C","435.0","K","","","","","","-","","-","","-","","-"
"CC1=CC=C(C)N1C1=CC(Cl)=C(C=C1Cl)[N+]([O-])=O","-","-","-","1-(2,5-Dichloro-4-nitrophenyl)-2,5-dimethyl-1H-pyrrole","82.0 - 84.0","?C","356.0","K","","","","","","-","","-","","-","","-"
"BrC1=CC=C2NC=C(C=O)C2=C1","-","-","-","5-Bromo-1H-indole-3-carbaldehyde","205.0 - 206.0","?C","478.5","K","","","","","","-","","-","","-","","-"
"COC(=O)C=CC1=CC=C(OC)C(OC2CCCC2)=C1","-","-","-","Methyl 3-[3-(cyclopentyloxy)-4-methoxyphenyl]acrylate","54.0 - 57.0","?C","328.5","K","","","","","","-","","-","","-","","-"
"COC1=CC(C)=C(OC)C=C1I","-","-","-","1-Iodo-2,5-dimethoxy-4-methylbenzene","84.0 - 86.0","?C","358.0","K","","","","","","-","","-","","-","","-"
"ClC1=NC(Cl)=C(Cl)C(C#N)=C1Cl","-","-","-","2,3,5,6-Tetrachloroisonicotinonitrile","139.0 - 142.0","?C","413.5","K","","","","","","-","","-","","-","","-"
"CCOC(=O)C1=CC=C(C=C1)N1C(C)=CC=C1C","-","-","-","Ethyl 4-(2,5-dimethyl-1H-pyrrol-1-yl)benzoate","88.0 - 90.0","?C","362.0","K","","","","","","-","","-","","-","","-"
"COC1=C2OC(=O)C(=CC2=CC(Br)=C1)C(O)=O","-","-","-","6-Bromo-8-methoxy-2-oxo-2H-chromene-3-carboxylic acid","226.0 - 228.0","?C","500.0","K","","","","","","-","","-","","-","","-"
"CC(=O)N1CCC(CC1)C1=CNC2=CC=CC=C12","-","-","-","1-[4-(1H-Indol-3-yl)piperidino]ethan-1-one","174.0 - 176.0","?C","448.0","K","","","","","","-","","-","","-","","-"
"CC1(CC2CC1C=C2)C(O)=O","-","-","-","2-Methylbicyclo[2.2.1]hept-5-ene-2-carboxylic acid","80.0","?C","353.0","K","","","","","","-","","-","","-","","-"
"C1CC(CCN1)C1=CNC2=C1C=CC=C2","-","-","-","3-Piperidin-4-yl-1H-indole","222.0 - 223.0","?C","495.5","K","","","","","","-","","-","","-","","-"
"COC1=CC=C(C=C1)C(=O)CN1C=C(N=C1C)[N+]([O-])=O","-","-","-","1-(4-Methoxyphenyl)-2-(2-methyl-4-nitro-1H-imidazol-1-yl)ethan-1-one","250.0 - 252.0","?C","524.0","K","","","","","","-","","-","","-","","-"
"CC1=NC2=C(C=CC=C2)C(=C1)N1CCNCC1","-","-","-","2-Methyl-4-piperazinoquinoline","101.0 - 103.0","?C","375.0","K","","","","","","-","","-","","-","","-"
"CC1=CC(=C(C#N)C(=O)N1)C(F)(F)F","-","-","-","6-Methyl-2-oxo-4-(trifluoromethyl)-1,2-dihydropyridine-3-carbonitrile","233.0 - 235.0","?C","507.0","K","","","","","","-","","-","","-","","-"
"FC(F)(F)C1=C(C#N)C(=O)NC(=C1)C1=CC=CC=C1","-","-","-","2-Hydroxy-6-phenyl-4-(trifluoromethyl)nicotinonitrile","301.0 - 303.0","?C","575.0","K","","","","","","-","","-","","-","","-"
"FC(F)(F)C1=C(C#N)C(=O)NC(=C1)C1=CC=CN=C1","-","-","-","6-Hydroxy-4-(trifluoromethyl)-2,3'-bipyridine-5-carbonitrile","280.0 - 281.0","?C","553.5","K","","","","","","-","","-","","-","","-"
"CCOC(=O)C(=CNC1=CC=CC=C1Cl)C#N","-","-","-","Ethyl 3-(2-chloroanilino)-2-cyanoacrylate","165.0 - 167.0","?C","439.0","K","","","","","","-","","-","","-","","-"
"CCOC(=O)C1=C(C=O)C2=C(N1)C=C(Cl)C=C2Cl","-","-","-","Ethyl 4,6-dichloro-3-formyl-1H-indole-2-carboxylate","213.0 - 217.0","?C","488.0","K","","","","","","-","","-","","-","","-"
"OCCNC1=NC=CN=C1Cl","-","-","-","2-[(3-Chloro-2-pyrazinyl)amino]-1-ethanol","54.0 - 58.0","?C","329.0","K","","","","","","-","","-","","-","","-"
"CC1=CC=C(C)N1C1=C(F)C=CC(=C1)[N+]([O-])=O","-","-","-","1-(2-Fluoro-5-nitrophenyl)-2,5-dimethyl-1H-pyrrole","56.0 - 58.0","?C","330.0","K","","","","","","-","","-","","-","","-"
"OC(=O)C12CC3CC(C1)CC(C3)(C2)C1=CC=C(C=C1)[N+]([O-])=O","-","-","-","3-(4-Nitrophenyl)adamantane-1-carboxylic acid","197.0 - 200.0","?C","471.5","K","","","","","","-","","-","","-","","-"
"COC1=CC=C(C(Cl)=N1)[N+]([O-])=O","-","-","-","2-Chloro-6-methoxy-3-nitropyridine","78.0 - 80.0","?C","352.0","K","","","","","","-","","-","","-","","-"
"OC1=C(C(=O)C2=CC=CC=C12)C1=CC=C(Br)C=C1","-","-","-","2-(4-Bromophenyl)-3-hydroxy-1H-inden-1-one","137.0 - 138.0","?C","410.5","K","","","","","","-","","-","","-","","-"
"OC(=O)C1(Cl)CC2CC1C=C2","-","-","-","2-Chlorobicyclo[2.2.1]hept-5-ene-2-carboxylic acid","139.0 - 141.0","?C","413.0","K","","","","","","-","","-","","-","","-"
"COC(=O)C(C)(N)CC1=CNC2=CC=CC=C12","-","-","-","Methyl 2-amino-3-(1H-indol-3-yl)-2-methylpropanoate","139.0 - 142.0","?C","413.5","K","","","","","","-","","-","","-","","-"
"OC(=O)C1=CN(C2CCCCC2)C2=CC=CC=C2C1=O","-","-","-","1-Cyclohexyl-4-oxo-1,4-dihydroquinoline-3-carboxylic acid","237.0 - 238.0","?C","510.5","K","","","","","","-","","-","","-","","-"
"BrC1CCC2=NON=C2C1=O","-","-","-","5-Bromo-4,5,6,7-tetrahydro-2,1,3-benzoxadiazol-4-one","65.0 - 68.0","?C","339.5","K","","","","","","-","","-","","-","","-"
"CC1=CC(C)=C(NC(=O)C(Br)C(C)(C)C)C(C)=C1","-","-","-","N1-Mesityl-2-bromo-3,3-dimethylbutanamide","185.0 - 188.0","?C","459.5","K","","","","","","-","","-","","-","","-"
"CC(C)(NO)C=NO","-","-","-","2-(Hydroxyamino)-2-methylpropanal oxime","98.0 - 100.0","?C","372.0","K","","","","","","-","","-","","-","","-"
"CC(C)(NO)C(=NO)C1=CC=CC=C1","-","-","-","2-(Hydroxyamino)-2-methyl-1-phenylpropan-1-one oxime","153.0 - 154.0","?C","426.5","K","","","","","","-","","-","","-","","-"
"[O-][N+](=O)C1=CC2=[N+]([O-])C3(CCCC3)[N+]([O-])=C2C=C1","-","-","-","5-Nitro-2-spirocyclopentane-2H-benzimidazol-1,3-dioxide","148.0 - 150.0","?C","422.0","K","","","","","","-","","-","","-","","-"
"CC1=CC2=C(C=CC=C2N)N=N1","-","-","-","3-Methylcinnolin-5-amine","189.0 - 191.0","?C","463.0","K","","","","","","-","","-","","-","","-"
"ON=C1CCCC2=C1C1=C(CCCC1)N=N2","-","-","-","1,2,3,4,7,8,9,10-Octahydrobenzo[c]cinnolin-1-one oxime","269.0 - 271.0","?C","543.0","K","","","","","","-","","-","","-","","-"
"NC(=O)C(F)(F)C(F)F","-","-","-","2,2,3,3-Tetrafluoropropanamide","57.0 - 59.0","?C","331.0","K","","","","","","-","","-","","-","","-"
"OC(CNCC1=CC=CC=C1)C1=CC=C(C=C1)[N+]([O-])=O","-","-","-","2-(Benzylamino)-1-(4-nitrophenyl)ethan-1-ol","133.0 - 134.0","?C","406.5","K","","","","","","-","","-","","-","","-"
"CC(C)(C)C1=CC2=C(C=C(C=C2C(=C1)[N+]([O-])=O)C(C)(C)C)[N+]([O-])=O","-","-","-","3,7-Di(tert-butyl)-1,5-dinitronaphthalene","198.0 - 200.0","?C","472.0","K","","","","","","-","","-","","-","","-"
"COC1=CC(CC#N)=C(OC)C=C1CC#N","-","-","-","2-[4-(Cyanomethyl)-2,5-dimethoxyphenyl]acetonitrile","198.0 - 200.0","?C","472.0","K","","","","","","-","","-","","-","","-"
"NC1=C(C#N)C(=C(O1)C1=CC=CC=C1)C1=CC=CC=C1","-","-","-","2-Amino-4,5-diphenyl-3-furonitrile","205.0 - 208.0","?C","479.5","K","","","","","","-","","-","","-","","-"
"CCOC(=O)C1=C(C)N(O)C2=C1C1=NON=C1C=C2","-","-","-","Ethyl 6-hydroxy-7-methyl-6H-[1,2,5]oxadiazolo[3,4-e]indole-8-carboxylate","229.0 - 231.0","?C","503.0","K","","","","","","-","","-","","-","","-"
"CC(=O)C1=C(C)N(O)C2=C1C1=NON=C1C=C2","-","-","-","1-(6-Hydroxy-7-methyl-6H-[1,2,5]oxadiazolo[3,4-e]indol-8-yl)ethan-1-one","301.0 - 303.0","?C","575.0","K","","","","","","-","","-","","-","","-"
"CON1C(C)=C(C(C)=O)C2=C1C=CC1=NON=C21","-","-","-","1-(6-Methoxy-7-methyl-6H-[1,2,5]oxadiazolo[3,4-e]indol-8-yl)ethan-1-one","201.0 - 203.0","?C","475.0","K","","","","","","-","","-","","-","","-"
"CCOC(=O)C1=C(C)N(OC)C2=C1C1=NON=C1C=C2","-","-","-","Ethyl 6-methoxy-7-methyl-6H-[1,2,5]oxadiazolo[3,4-e]indole-8-carboxylate","147.0 - 149.0","?C","421.0","K","","","","","","-","","-","","-","","-"
"OC(=O)C12CC3CC(C1)CC(C3)(C2)C(F)(F)C(F)C(F)(F)F","-","-","-","3-(1,1,2,3,3,3-Hexafluoropropyl)adamantane-1-carboxylic acid","115.0 - 117.0","?C","389.0","K","","","","","","-","","-","","-","","-"
"OC1=NN=C(C(Cl)=C1)C1=CC=CC=C1","-","-","-","5-Chloro-6-phenylpyridazin-3-ol","235.0 - 236.0","?C","508.5","K","","","","","","-","","-","","-","","-"
"ON1C2CCCCC2N(O)C(=O)C1=O","-","-","-","1,4-Dihydroxyoctahydroquinoxaline-2,3-dione","243.0 - 245.0","?C","517.0","K","","","","","","-","","-","","-","","-"
"OC1CS(=O)(=O)CC1Cl","-","-","-","3-Chloro-4-hydroxytetrahydro-1H-1lambda6-thiophene-1,1-dione","163.0 - 165.0","?C","437.0","K","","","","","","-","","-","","-","","-"
"COC1=CC(CCl)=C(OC)C=C1CCl","-","-","-","1,4-Bis(chloromethyl)-2,5-dimethoxybenzene","164.0 - 165.0","?C","437.5","K","","","","","","-","","-","","-","","-"
"CC1=NC(Cl)=NC(N)=C1N","-","-","-","2-Chloro-6-methylpyrimidine-4,5-diamine","249.0 - 252.0","?C","523.5","K","","","","","","-","","-","","-","","-"
"N#CCC1=NC(=CS1)C1=CC=CC=C1","-","-","-","2-(4-Phenyl-1,3-thiazol-2-yl)acetonitrile","59.0 - 60.0","?C","332.5","K","","","","","","-","","-","","-","","-"
"COC1=C(CCl)C2=CC=C(Br)C=C2C=C1","-","-","-","6-Bromo-1-(chloromethyl)-2-methoxynaphthalene","144.0 - 146.0","?C","418.0","K","","","","","","-","","-","","-","","-"
"CC1CC(=O)C2=C3N1C=C(C(O)=O)C(=O)C3=CC(F)=C2F","-","-","-","8,9-Difluoro-5-methyl-1,7-dioxo-6,7-dihydro-1H,5H-pyrido[3,2,1-ij]quinoline-2-carbox","323.0 - 325.0","?C","597.0","K","","","","","","-","","-","","-","","-"
"CCNC=C(C(=O)OCC)C(=O)C1=CC(F)=C(Cl)N=C1","-","-","-","Ethyl 2-[(6-chloro-5-fluoropyridin-3-yl)carbonyl]-3-(ethylamino)acrylate","122.0 - 124.0","?C","396.0","K","","","","","","-","","-","","-","","-"
"COCC1=NC(SC)=NC(O)=C1","-","-","-","4-Hydroxy-6-methoxymethyl-2-(methylthio)pyrimidine","195.0 - 196.0","?C","468.5","K","","","","","","-","","-","","-","","-"
"CCSC1=NC(O)=C(Br)C(N)=N1","-","-","-","6-Amino-5-bromo-2-(ethylthio)pyrimidin-4-ol","300.0","?C","573.0","K","","","","","","-","","-","","-","","-"
"CC1=C(C(Cl)=O)C(=NO1)C1=C(Cl)C=CC=C1Cl","-","-","-","3-(2,6-Dichlorophenyl)-5-methylisoxazole-4-carbonyl chloride","92.0 - 95.0","?C","366.5","K","","","","","","-","","-","","-","","-"
"CCC1CC(=O)C=C(C)C1(O)C=CC(C)=CC(O)=O","-","-","-","5-(1-Hydroxy-2,6,6-trimethyl-4-oxocyclohex-2-enyl)-3-methylpenta-2,4-dienoic acid","186.0 - 188.0","?C","460.0","K","","","","","","-","","-","","-","","-"
"CC1=NOC(N)=C1C","-","-","-","3,4-Dimethylisoxazol-5-amine","119.0 - 120.0","?C","392.5","K","","","","","","-","","-","","-","","-"
"CC(C)(C)OC(=O)NC(CC(N)=O)C(O)=O","-","-","-","4-Amino-2-[(tert-butoxycarbonyl)amino]-4-oxobutanoic acid","179.0 - 182.0","?C","453.5","K","","","","","","-","","-","","-","","-"
"NC1=CC=C(O)C2=C1C(=O)C1=C(O)C=CC(N)=C1C2=O","-","-","-","1,5-Diamino-4,8-dihydroxy-9,10-dihydroanthracene-9,10-dione","300.0","?C","573.0","K","","","","","","-","","-","","-","","-"
"CC1=C(O)C(Cl)=CC(Br)=C1","-","-","-","4-Bromo-2-chloro-6-methylphenol","45.0 - 47.0","?C","319.0","K","","","","","","-","","-","","-","","-"
"NC(CSCC1=CC=CC=C1)C(=O)NC1=CC=C(C=C1)[N+]([O-])=O","-","-","-","N1-(4-Nitrophenyl)-2-amino-3-(benzylthio)propanamide","100.0 - 102.0","?C","374.0","K","","","","","","-","","-","","-","","-"
"CC(=O)NC1=C(O)C=CC(C)=C1","-","-","-","N1-(2-Hydroxy-5-methylphenyl)acetamide","151.0 - 153.0","?C","425.0","K","","","","","","-","","-","","-","","-"
"COC(=O)C1=C(N)C(C)=CS1","-","-","-","Methyl 3-amino-4-methylthiophene-2-carboxylate","86.0 - 87.0","?C","359.5","K","","","","","","-","","-","","-","","-"
"[O-][N+](=O)C1=CC=C(C=C1)C(=O)C(=O)C1=CC=CC=C1","-","-","-","1-(4-Nitrophenyl)-2-phenylethane-1,2-dione","141.0 - 143.0","?C","415.0","K","","","","","","-","","-","","-","","-"
"CC1=NC(C=O)=CN1","-","-","-","2-Methyl-1H-imidazole-4-carbaldehyde","165.0","?C","438.0","K","","","","","","-","","-","","-","","-"
"CCC1=NC(C)=C(N1)C=O","-","-","-","2-Ethyl-4-methyl-1H-imidazole-5-carbaldehyde","104.0 - 105.0","?C","377.5","K","","","","","","-","","-","","-","","-"
"CC1=C(NC=N1)C=O","-","-","-","4-Methyl-1H-imidazole-5-carbaldehyde","165.0 - 166.0","?C","438.5","K","","","","","","-","","-","","-","","-"
"NC(=N)NCCCC(NC(=O)C1=CC=CC=C1)C(O)=O","-","-","-","5-[[Amino(imino)methyl]amino]-2-(benzoylamino)pentanoic acid","285.0","?C","558.0","K","","","","","","-","","-","","-","","-"
"ON=C1C2CC3CC(C2)CC1C3","-","-","-","Adamantan-2-one oxime","150.0 - 151.0","?C","423.5","K","","","","","","-","","-","","-","","-"
"CCCC(=O)C1=C(O)C=C(NC(C)=O)C=C1","-","-","-","N1-(4-Butyryl-3-hydroxyphenyl)acetamide","85.0 - 87.0","?C","359.0","K","","","","","","-","","-","","-","","-"
"NC1=NC(C2=CC=CC=C2)=C(N=N1)C1=CC=CC=C1","-","-","-","5,6-Diphenyl-1,2,4-triazin-3-amine","177.0 - 179.0","?C","451.0","K","","","","","","-","","-","","-","","-"
"CC(CCC(O)=O)C1CCC2C3CC(O)C4=CC(O)CCC4(C)C3CCC12C","-","-","-","4-(3,6-Dihydroxy-10,13-dimethyl-2,3,6,7,8,9,10,11,12,13,14,15,16,17-tetradecahydro-1H-cyclopenta[a]phenanthren-17-yl)pen","200.0 - 201.0","?C","473.5","K","","","","","","-","","-","","-","","-"
"CC(=O)C1=C(Cl)C=C(OC2=CC=C(Cl)C=C2)C=C1","-","-","-","1-[2-Chloro-4-(4-chlorophenoxy)phenyl]ethan-1-one","54.0 - 56.0","?C","328.0","K","","","","","","-","","-","","-","","-"
"CC1=CC(Cl)=CC(Cl)=C1N=C=S","-","-","-","2,4-Dichloro-6-methylphenyl isothiocyanate","57.0 - 58.0","?C","330.5","K","","","","","","-","","-","","-","","-"
"CC1=C(C(O)=O)C(=NO1)C1=C(Cl)C=CC=C1F","-","-","-","3-(2-Chloro-6-fluorophenyl)-5-methylisoxazole-4-carboxylic acid","202.0 - 204.0","?C","476.0","K","","","","","","-","","-","","-","","-"
"NC(CC1CCCCC1)C(O)=O","-","-","-","2-Amino-3-cyclohexylpropanoic acid","322.0 - 328.0","?C","598.0","K","","","","","","-","","-","","-","","-"
"CN(C(C)=O)C1=CC(=CC=C1)C1=NN2C(C)=NN=C2C=C1","-","-","-","N-Methyl-N-[3-(3-methyl[1,2,4]triazolo[4,3-b]pyridazin-6-yl)phenyl]acetamide","200.0 - 201.0","?C","473.5","K","","","","","","-","","-","","-","","-"
"CC(=O)NC1=CC(=CC=C1)N1N=NN=C1S","-","-","-","N-[3-(5-Mercapto-1H-1,2,3,4-tetraazol-1-yl)phenyl]acetamide","185.0 - 187.0","?C","459.0","K","","","","","","-","","-","","-","","-"
"CCCCC1=NC(CO)=CN1","-","-","-","(2-Butyl-1H-imidazol-4-yl)methanol","94.0 - 97.0","?C","368.5","K","","","","","","-","","-","","-","","-"
"OC(=O)C1CCC(CC1)C1=CC=C(Cl)C=C1","-","-","-","(E)-4-(4-Chlorophenyl)cyclohexanecarboxylic acid","250.0 - 255.0","?C","525.5","K","","","","","","-","","-","","-","","-"
"C=C1CC(C1)C#N","-","-","-","3-Methylenecyclobutanecarbonitrile","149.0 - 150.0","?C","422.5","K","","","","","","-","","-","","-","","-"
"CCCCC1=NC(C=O)=C(Cl)N1","-","-","-","2-Butyl-4-chloro-5-formylimidazole","98.0 - 100.0","?C","372.0","K","","","","","","-","","-","","-","","-"
"CCCCC1=NC(CO)=C(Cl)N1","-","-","-","(2-Butyl-5-chloro-1H-imidazol-4-yl)methanol","150.0 - 152.0","?C","424.0","K","","","","","","-","","-","","-","","-"
"OC(=O)C1CCCCN1C(=O)OCC1C2=C(C=CC=C2)C2=C1C=CC=C2","-","-","-","(2R)-1-[(9H-Fluoren-9-ylmethoxy)carbonyl]hexahydropyridine-2-carboxylic acid","149.0 - 153.0","?C","424.0","K","","","","","","-","","-","","-","","-"
"NC(=O)CC1=NC(=CS1)C1=CC=CC=C1","-","-","-","2-(4-Phenyl-1,3-thiazol-2-yl)acetamide","193.0 - 194.0","?C","466.5","K","","","","","","-","","-","","-","","-"
"NC(=O)CC1=NC(=CS1)C1=CC=C(C=C1)[N+]([O-])=O","-","-","-","2-[4-(4-Nitrophenyl)-1,3-thiazol-2-yl]acetamide","202.0 - 203.0","?C","475.5","K","","","","","","-","","-","","-","","-"
"OC(=O)C=CC1=CC=C(I)O1","-","-","-","(E)-3-(5-Iodo-2-furyl)prop-2-enoic acid","145.0","?C","418.0","K","","","","","","-","","-","","-","","-"
"NC1=C(SC2=C1C(=CC(=N2)C1=CC=CC=C1)C(F)(F)F)C#N","-","-","-","3-Amino-6-phenyl-4-(trifluoromethyl)thieno[2,3-b]pyridine-2-carbonitrile","236.0 - 238.0","?C","510.0","K","","","","","","-","","-","","-","","-"
"FC(F)(F)C1=C(C#N)C(S)=NC2=C1CCCC2","-","-","-","2-Mercapto-4-(trifluoromethyl)-5,6,7,8-tetrahydroquinoline-3-carbonitrile","216.0 - 220.0","?C","491.0","K","","","","","","-","","-","","-","","-"
"COC1=C(CC#N)C2=CC=C(Br)C=C2C=C1","-","-","-","2-(6-Bromo-2-methoxy-1-naphthyl)acetonitrile","147.0 - 148.0","?C","420.5","K","","","","","","-","","-","","-","","-"
"FC(F)(F)C1=C(C#N)C(S)=NC(=C1)C1=CC=CC=C1","-","-","-","2-Mercapto-6-phenyl-4-(trifluoromethyl)nicotinonitrile","181.0","?C","454.0","K","","","","","","-","","-","","-","","-"
"FC(F)(F)OC1=CC=C(C=C1)C1=CC=C(O1)C=O","-","-","-","5-[4-(Trifluoromethoxy)phenyl]-2-furaldehyde","87.0 - 88.0","?C","360.5","K","","","","","","-","","-","","-","","-"
"OC(=O)C1=C2NC=C(C=O)C2=CC=C1","-","-","-","3-Formyl-1H-indole-7-carboxylic acid","308.0 - 309.0","?C","581.5","K","","","","","","-","","-","","-","","-"
"NNC(=O)C1=C2NC=CC2=CC=C1","-","-","-","1H-Indole-7-carbohydrazide","178.0","?C","451.0","K","","","","","","-","","-","","-","","-"
"NC(=O)CC1=NC(=CS1)C1=CC=C(F)C=C1","-","-","-","2-[4-(4-Fluorophenyl)-1,3-thiazol-2-yl]acetamide","182.3 - 182.4","?C","455.4","K","","","","","","-","","-","","-","","-"
"CC1=CC(=C2C(N)=C(SC2=N1)C#N)C(F)(F)F","-","-","-","3-Amino-6-methyl-4-(trifluoromethyl)thieno[2,3-b]pyridine-2-carbonitrile","182.0 - 184.0","?C","456.0","K","","","","","","-","","-","","-","","-"
"NC1=C(SC2=C1C(=CC(=N2)C1=CC=CC=C1)C(F)(F)F)C(O)=O","-","-","-","3-Amino-6-phenyl-4-(trifluoromethyl)thieno[2,3-b]pyridine-2-carboxylic acid","159.0 - 161.0","?C","433.0","K","","","","","","-","","-","","-","","-"
"CC1=C(C)C(Br)=CC(C(Cl)=O)=C1C","-","-","-","5-Bromo-2,3,4-trimethylbenzoyl chloride","60.0 - 62.0","?C","334.0","K","","","","","","-","","-","","-","","-"
"CC1=C(C(C)=NO1)C1=NC(CCl)=NO1","-","-","-","3-(Chloromethyl)-5-(3,5-dimethylisoxazol-4-yl)-1,2,4-oxadiazole","88.0 - 90.0","?C","362.0","K","","","","","","-","","-","","-","","-"
"CC1CC(=O)C2=C(S1)C=CC(Cl)=C2","-","-","-","6-Chloro-2-methyl-3,4-dihydro-2H-1-benzothiin-4-one","64.0 - 65.0","?C","337.5","K","","","","","","-","","-","","-","","-"
"ClC1=CC2=C(SCCC2=O)C=C1","-","-","-","6-Chloro-3,4-dihydro-2H-1-benzothiin-4-one","64.0 - 65.0","?C","337.5","K","","","","","","-","","-","","-","","-"
"ClC1=CC2=C(C=C1)S(=O)(=O)CCC2=O","-","-","-","6-Chloro-1-benzothiopyran-4-one 1,1-dioxide","160.0 - 161.0","?C","433.5","K","","","","","","-","","-","","-","","-"
"NC1=CC=CC(=C1)C1=CN=CO1","-","-","-","3-(1,3-Oxazol-5-yl)aniline","92.0 - 95.0","?C","366.5","K","","","","","","-","","-","","-","","-"
"NC(=S)C1=CC=C(C=C1)C1=CSN=N1","-","-","-","4-(1,2,3-Thiadiazol-4-yl)benzene-1-carbothioamide","223.0 - 228.0","?C","498.5","K","","","","","","-","","-","","-","","-"
"NNC1=NC2=CC=C(Cl)C=C2S1","-","-","-","1-(6-Chloro-1,3-benzothiazol-2-yl)hydrazine","263.0 - 265.0","?C","537.0","K","","","","","","-","","-","","-","","-"
"CC1SC2=CC=C(Cl)C=C2C2=C1C=NC(N)=N2","-","-","-","9-Chloro-5-methyl-5H-benzo[5,6]thiino[4,3-d]pyrimidin-2-amine","181.0 - 183.0","?C","455.0","K","","","","","","-","","-","","-","","-"
"OC(=O)C1=CN=C2SCCN2C1=O","-","-","-","5-Oxo-2,3-dihydro-5H-pyrimido[2,1-b][1,3]thiazole-6-carboxylic acid","237.0 - 238.0","?C","510.5","K","","","","","","-","","-","","-","","-"
"COC1=CC=C(C=C1)C1NCCC2=C1C=CS2","-","-","-","4-(4-Methoxyphenyl)-4,5,6,7-tetrahydrothieno[3,2-c]pyridine","69.0 - 71.0","?C","343.0","K","","","","","","-","","-","","-","","-"
"C(OC1=CC=C(C=C1)C1=CSN=N1)C1CO1","-","-","-","4-[4-(Oxiran-2-ylmethoxy)phenyl]-1,2,3-thiadiazole","70.0 - 72.0","?C","344.0","K","","","","","","-","","-","","-","","-"
"COC(=O)C1=CC2=C(S1)C1=C(SC2)C=CC(Cl)=C1","-","-","-","Methyl 8-chloro-4H-benzo[b]thieno[2,3-d]thiine-2-carboxylate","158.0 - 160.0","?C","432.0","K","","","","","","-","","-","","-","","-"
"COC(=O)C1=C(C=CS1)C1=CC=C(O1)C=O","-","-","-","Methyl 3-(5-formyl-2-furyl)thiophene-2-carboxylate","117.0 - 118.0","?C","390.5","K","","","","","","-","","-","","-","","-"
"OC(=O)C1=CC2=C(S1)C=CS2","-","-","-","Thieno[3,2-b]thiophene-2-carboxylic acid","222.0","?C","495.0","K","","","","","","-","","-","","-","","-"
"ClCC1=NOC(=N1)C1=CC=CC=C1","-","-","-","3-(Chloromethyl)-5-phenyl-1,2,4-oxadiazole","64.0","?C","337.0","K","","","","","","-","","-","","-","","-"