"SMILES","CASRN","EXTERNALID","N","NAME","Melting Point","UNIT {Melting Point}","Melting Point {measured, converted}","UNIT {Melting Point}","Dataset","comment (property)","comment (chemical)","measurement method","Pressure","UNIT {Pressure}","Som set numeric condition","UNIT {Som set numeric condition}","Resp set numeric condition","UNIT {Resp set numeric condition}","Quality code","UNIT {Quality code}"
"CN1C2CC(O)C1CC(=O)C2","-","-","-","()-exo-6-Hydroxytropinone","120.0 - 123.0","?C","394.5","K","","","","","","-","","-","","-","","-"
"CNC1=CC=C(C=C1)C(O)=O","-","-","-","4-(Methylamino)benzoic acid","160.0 - 163.0","?C","434.5","K","","","","","","-","","-","","-","","-"
"CC(=O)C1=CC=C(C=C1)N1CCCCC1","-","-","-","4-Piperidinoacetophenone","84.0 - 90.0","?C","360.0","K","","","","","","-","","-","","-","","-"
"CC(=O)C1=CC=C(C=C1)N1CCOCC1","-","-","-","4-Morpholinoacetophenone","94.0 - 98.0","?C","369.0","K","","","","","","-","","-","","-","","-"
"OC(=O)C1=C(I)C(I)=CC(I)=C1","-","-","-","2,3,5-TRIIODOBENZOIC ACID","223.0 - 228.0","?C","498.5","K","","","","","","-","","-","","-","","-"
"CC1=CC=C(C=C1)S(=O)(=O)N(CCO)CCO","-","-","-","N,N-Bis-(2-hydroxyethyl)-p-toluenesulfonamide","94.0 - 100.0","?C","370.0","K","","","","","","-","","-","","-","","-"
"ClC1=CC=C(C=C1)S(=O)C1=CC=C(Cl)C=C1","-","-","-","4-Chlorophenyl sulfoxide","140.0 - 145.0","?C","415.5","K","","","","","","-","","-","","-","","-"
"CC1=C(N)C=CC(=C1)N=NC1=C(C)C=CC=C1","-","-","-","Fast Garnet GBC Base","101.0 - 102.0","?C","374.5","K","","","","","","-","","-","","-","","-"
"OC1=CC=CN=C1O","-","-","-","2,3-Dihydroxypyridine","245.0","?C","518.0","K","","","","","","-","","-","","-","","-"
"NC1=NC=CC=C1O","-","-","-","2-AMINO-3-HYDROXYPYRIDINE","170.0 - 176.0","?C","446.0","K","","","","","","-","","-","","-","","-"
"OC(=O)CC(=CC(O)=O)C(O)=O","-","-","-","trans-Aconitic acid","187.0 - 191.0","?C","462.0","K","","","","","","-","","-","","-","","-"
"NN1CCN(CCO)CC1","-","-","-","1-Amino-4-(2-hydroxyethyl)piperazine","102.0 - 107.0","?C","377.5","K","","","","","","-","","-","","-","","-"
"NCCCCC(O)=O","-","-","-","5-Aminovaleric acid","158.0 - 161.0","?C","432.5","K","","","","","","-","","-","","-","","-"
"OC1=C(O)C(=O)C1=O","-","-","-","3,4-Dihydroxy-3-cyclobutene-1,2-dione","293.0","?C","566.0","K","","","","","","-","","-","","-","","-"
"OCC1=CC=C(C=C1)C1=CC=CC=C1","-","-","-","4-Biphenylmethanol","101.0 - 105.0","?C","376.0","K","","","","","","-","","-","","-","","-"
"O=C(NNC1=CC=CC=C1)N=NC1=CC=CC=C1","-","-","-","Phenylazoformic acid 2-phenylhydrazide","153.0 - 157.0","?C","428.0","K","","","","","","-","","-","","-","","-"
"CC1=CC=C(C=C1)C(=O)C1=C(N)C=CC=C1","-","-","-","2-Amino-4'-methylbenzophenone","91.0 - 94.0","?C","365.5","K","","","","","","-","","-","","-","","-"
"NC(=O)CCC(N)=O","-","-","-","SUCCINAMIDE","260.0 - 265.0","?C","535.5","K","","","","","","-","","-","","-","","-"
"CCCCCCCC(=O)OC1CCC2(C)C3CCC4(C)C(CCC4C3CC=C2C1)C(C)CCCC(C)C","-","-","-","Cholesteryl caprylate","110.0","?C","383.0","K","","","","","","-","","-","","-","","-"
"OC(=O)CNCCC#N","-","-","-","N-(2-Cyanoethyl)glycine","188.0 - 193.0","?C","463.5","K","","","","","","-","","-","","-","","-"
"CC12CCC3C(CC=C4CC(O)CCC34C)C1CCC2=O","-","-","-","(+)-Dehydroisoandrosterone","146.0 - 151.0","?C","421.5","K","","","","","","-","","-","","-","","-"
"NC1=NC=NC2=C1N=CN2C1CC(O)C(CO)O1","-","-","-","2'-Deoxyadenosine hydrate","185.0 - 187.0","?C","459.0","K","","","","","","-","","-","","-","","-"
"NC1=CC=CN=C1N","-","-","-","2,3-Diaminopyridine","114.0 - 116.0","?C","388.0","K","","","","","","-","","-","","-","","-"
"NCS(O)(=O)=O","-","-","-","Aminomethanesulfonic acid","180.0 - 185.0","?C","455.5","K","","","","","","-","","-","","-","","-"
"CN1C2=C(N(CCCl)C=N2)C(=O)N(C)C1=O","-","-","-","7-(2-Chloroethyl)theophylline","122.0 - 127.0","?C","397.5","K","","","","","","-","","-","","-","","-"
"NC1=NC=NC2=C1N=C(Br)N2C1OC(CO)C(O)C1O","-","-","-","8-Bromoadenosine","210.0 - 212.0","?C","484.0","K","","","","","","-","","-","","-","","-"
"OC(=O)CN(CC(O)=O)CC1=CC2=C(C(O)=C1O)C(=O)C1=CC=CC=C1C2=O","-","-","-","Alizarin complexone dihydrate","190.0","?C","463.0","K","","","","","","-","","-","","-","","-"
"SC1=NC(=C(N1)C1=CC=CC=C1)C1=CC=CC=C1","-","-","-","4,5-Diphenyl-2-imidazolethiol","300.0","?C","573.0","K","","","","","","-","","-","","-","","-"
"NC1=NN=C(S)S1","-","-","-","5-Amino-1,3,4-thiadiazole-2-thiol","243.0 - 244.0","?C","516.5","K","","","","","","-","","-","","-","","-"
"NC(CCC(O)=O)C(O)=O","-","-","-","L(+)-Glutamic acid","205.0","?C","478.0","K","","","","","","-","","-","","-","","-"
"CC(=O)C1=CC(C)=C(C)C=C1O","-","-","-","2'-Hydroxy-4',5'-dimethylacetophenone","69.0 - 73.0","?C","344.0","K","","","","","","-","","-","","-","","-"
"OC(=O)C1=CNC(=O)C=C1","-","-","-","6-Hydroxynicotinic acid","314.0 - 316.0","?C","588.0","K","","","","","","-","","-","","-","","-"
"ClC1OS(=O)(=O)C2=C1C=CC=C2","-","-","-","alpha-Chloro-alpha-hydroxy-2-toluenesulfonic acid gamma-sultone","110.0 - 116.0","?C","386.0","K","","","","","","-","","-","","-","","-"
"COC1=C(O)C(I)=CC(C=O)=C1","-","-","-","4-Hydroxy-3-iodo-5-methoxybenzaldehyde","183.0 - 5.0","?C","367.0","K","","","","","","-","","-","","-","","-"
"O=C1NC2=C(C=CC=C2)N1C1CCNCC1","-","-","-","4-(2-Keto-1-benzimidazolinyl)piperidine","183.0 - 185.0","?C","457.0","K","","","","","","-","","-","","-","","-"
"SC1=NC=CC=N1","-","-","-","2-Mercaptopyrimidine","230.0","?C","503.0","K","","","","","","-","","-","","-","","-"
"CN1C(=O)OC(=O)C2=C1C=CC=C2","-","-","-","N-Methylisatoic anhydride","165.0","?C","438.0","K","","","","","","-","","-","","-","","-"
"OC(=O)C=CC1=CC(=CC=C1)[N+]([O-])=O","-","-","-","3-(3-nitrophenyl)acrylic acid","202.0 - 204.0","?C","476.0","K","","","","","","-","","-","","-","","-"
"OC12CC3CC(CC(C3)C1)C2","-","-","-","1-Adamantanol","240.0","?C","513.0","K","","","","","","-","","-","","-","","-"
"OC(=O)C=CC1=CC=CS1","-","-","-","3-(2-Thienyl)acrylic acid","145.0 - 148.0","?C","419.5","K","","","","","","-","","-","","-","","-"
"COC1=C(O)C(Br)=CC(C=O)=C1","-","-","-","3-Bromo-4-hydroxy-5-methoxybenzaldehyde","164.0 - 166.0","?C","438.0","K","","","","","","-","","-","","-","","-"
"NNC(=O)C(=O)NN","-","-","-","Oxalyl dihydrazide","239.0 - 243.0","?C","514.0","K","","","","","","-","","-","","-","","-"
"OC1=C(C=C2C=CC=CC2=C1)C(=O)OC1=CC=CC=C1","-","-","-","Phenyl 3-hydroxy-2-naphthoate","128.0 - 133.0","?C","403.5","K","","","","","","-","","-","","-","","-"
"OC(=O)C1CCCN1","-","-","-","L(-)-Proline","228.0 - 233.0","?C","503.5","K","","","","","","-","","-","","-","","-"
"CNCC(O)=O","-","-","-","sarcosine","208.0","?C","481.0","K","","","","","","-","","-","","-","","-"
"ClC(Cl)(Br)C(Cl)(Cl)Br","-","-","-","1,2-Dibromotetrachloroethane","220.0 - 222.0","?C","494.0","K","","","","","","-","","-","","-","","-"
"NC1=NC=C(S1)[N+]([O-])=O","-","-","-","2-AMINO-5-NITROTHIAZOLE","196.0 - 204.0","?C","473.0","K","","","","","","-","","-","","-","","-"
"CC(C)(C)C(=O)OC1=CC=C(C=C1)[N+]([O-])=O","-","-","-","4-Nitrophenyl trimethylacetate","92.0 - 96.0","?C","367.0","K","","","","","","-","","-","","-","","-"
"CC(=O)OC1=CN(C(C)=O)C2=CC=C(Br)C=C12","-","-","-","5-Bromoindoxyl diacetate","124.0 - 128.0","?C","399.0","K","","","","","","-","","-","","-","","-"
"S=P(C1=CC=CC=C1)(C1=CC=CC=C1)C1=CC=CC=C1","-","-","-","Triphenylphosphine sulfide","162.0 - 164.0","?C","436.0","K","","","","","","-","","-","","-","","-"
"ClC1=C(Cl)C(Cl)=C(Cl)C2=C1C(=O)NC2=O","-","-","-","3,4,5,6-Tetrachlorophthalimide","300.0","?C","573.0","K","","","","","","-","","-","","-","","-"
"OC1(O)C2=C(C=CC=C2)C(=O)C1(O)C1(O)C(=O)C2=C(C=CC=C2)C1(O)O","-","-","-","Hydrindantin dihydrate","240.0","?C","513.0","K","","","","","","-","","-","","-","","-"
"ClCC1CNC(=O)O1","-","-","-","5-Chloromethyl-2-oxazolidinone","101.0 - 105.0","?C","376.0","K","","","","","","-","","-","","-","","-"
"O=C(C1=CC=CC=C1)C1=CC=C(C=C1)N1CCOCC1","-","-","-","4-Morpholinobenzophenone","142.0 - 145.0","?C","416.5","K","","","","","","-","","-","","-","","-"
"NCCC(C1=CC=CC=C1)C1=CC=CC=C1","-","-","-","3,3-Diphenylpropylamine","29.0 - 31.0","?C","303.0","K","","","","","","-","","-","","-","","-"
"CC(=O)C1=CC=C(C=C1)N1CCNCC1","-","-","-","4-Piperazinoacetophenone","107.0 - 110.0","?C","381.5","K","","","","","","-","","-","","-","","-"
"CCOC(=O)C1=C(C)NC(C)=C(C1C)C(=O)OCC","-","-","-","Diethyl 1,4-dihydro-2,4,6-trimethyl-3,5-pyridinedicarboxylate","139.0 - 132.0","?C","408.5","K","","","","","","-","","-","","-","","-"
"CC1=CC(C(O)=O)=C(N)C=C1","-","-","-","2-Amino-5-methylbenzoic acid","174.0 - 177.0","?C","448.5","K","","","","","","-","","-","","-","","-"
"CC1=CC(C)=NC(S)=N1","-","-","-","4,6-Dimethyl-2-mercaptopyrimidine","213.0 - 217.0","?C","488.0","K","","","","","","-","","-","","-","","-"
"NNC(=O)C(N)CC1=CC=C(O)C=C1","-","-","-","L-Tyrosine hydrazide","196.0 - 198.0","?C","470.0","K","","","","","","-","","-","","-","","-"
"FC(Cl)C(F)(F)S(=O)(=O)C1=CC=C(Cl)C=C1","-","-","-","4-Chlorophenyl 2-chloro-1,1,2-trifluoroethyl sulfone","55.0 - 57.0","?C","329.0","K","","","","","","-","","-","","-","","-"
"CCC(O)(CC)C(O)=O","-","-","-","2-Ethyl-2-hydroxybutyric acid","78.0 - 82.0","?C","353.0","K","","","","","","-","","-","","-","","-"
"OC1CC(O)(CC(O)C1O)C(O)=O","-","-","-","D(-)-Quinic acid","166.0 - 168.0","?C","440.0","K","","","","","","-","","-","","-","","-"
"NC(=O)NC12CC3CC(CC(C3)C1)C2","-","-","-","N-(1-Adamantyl)urea","250.0","?C","523.0","K","","","","","","-","","-","","-","","-"
"NC1=NNC(S)=N1","-","-","-","3-Amino-5-mercapto-1,2,4-triazole","300.0","?C","573.0","K","","","","","","-","","-","","-","","-"
"OC1COC(O)C(O)C1O","-","-","-","D(-)-Arabinose","152.0 - 160.0","?C","429.0","K","","","","","","-","","-","","-","","-"
"OC(=O)C1(CCCC1)C1=CC=C(Cl)C=C1","-","-","-","1-(4-Chlorophenyl)-1-cyclopentanecarboxylic acid","160.0 - 164.0","?C","435.0","K","","","","","","-","","-","","-","","-"
"[O-][N+](=O)C1=CNC=N1","-","-","-","4-Nitroimidazole","303.0","?C","576.0","K","","","","","","-","","-","","-","","-"
"BrC1=NC(Br)=C(Br)N1","-","-","-","2,4,5-tribromoimidazole","208.0 - 212.0","?C","483.0","K","","","","","","-","","-","","-","","-"
"CC1=CC=C(Cl)C(N)=C1Cl","-","-","-","2,6-dichloro-3-methylaniline","37.0 - 40.0","?C","311.5","K","","","","","","-","","-","","-","","-"
"CCCCCOC1=CC=C(O)C=C1","-","-","-","4-Pentyloxyphenol","46.0 - 49.0","?C","320.5","K","","","","","","-","","-","","-","","-"
"OC(=O)C(=O)C1=CC=CS1","-","-","-","2-Thiopheneglyoxylic acid","89.0 - 95.0","?C","365.0","K","","","","","","-","","-","","-","","-"
"C[C@@H]1O[C@@H](O[C@@H]2[C@@H](O)[C@H](O)[C@@H](CO)O[C@H]2OC2=CC(O)=C3C(=O)C[C@H](OC3=C2)C2=CC=C(O)C=C2)[C@H](O)[C@H](O)[C@H]1O","-","-","","Naringin","166.0","?C","439.0","K","","","","","","-","","-","","-","","-"
"OC(=O)C=CC1=CC=C(F)C=C1","-","-","-","4-Fluorocinnamic acid","207.0 - 210.0","?C","481.5","K","","","","","","-","","-","","-","","-"
"CC(C)(C)C1=CC(=C(C(=C1)C(C)(C)C)[N+]([O-])=O)C(C)(C)C","-","-","-","2,4,6-Tri-tert-butylnitrobenzene","205.0 - 206.0","?C","478.5","K","","","","","","-","","-","","-","","-"
"ON=CC1=C(O)C=CC=C1","-","-","-","salicylaldoxime","56.0 - 59.0","?C","330.5","K","","","","","","-","","-","","-","","-"
"OCC(CO)(CO)NCCS(O)(=O)=O","-","-","-","C05353","223.0 - 225.0","?C","497.0","K","","","","","","-","","-","","-","","-"
"NNC(=S)NN","-","-","-","Thiocarbohydrazide","168.0 - 172.0","?C","443.0","K","","","","","","-","","-","","-","","-"
"OC1=CC=C2C(OC3=C(C=CC(O)=C3O)C22OS(=O)(=O)C3=C2C=CC=C3)=C1O","-","-","-","Pyrogallol Red","300.0","?C","573.0","K","","","","","","-","","-","","-","","-"
"CC(C)C1=CC(=C(C)C(CN(CC(O)=O)CC(O)=O)=C1O)C1(OC(=O)C2=CC=CC=C12)C1=CC(C(C)C)=C(O)C(CN(CC(O)=O)CC(O)=O)=C1C","-","-","-","Thymolphthalein Complexone","191.0","?C","464.0","K","","","","","","-","","-","","-","","-"
"CC(C)(C)C1=CC(=C(N=O)C(=C1)C(C)(C)C)C(C)(C)C","-","-","-","2,4,6-tri-tert-Butylnitrosobenzene","170.0 - 173.0","?C","444.5","K","","","","","","-","","-","","-","","-"
"[O-][N+](=O)C1=CC(=C(Cl)N=C1)[N+]([O-])=O","-","-","-","2-Chloro-3,5-dinitropyridine","63.0 - 66.0","?C","337.5","K","","","","","","-","","-","","-","","-"
"CCCCCCCCCCCCCCCCOC1=CC=C(C=C1)C(O)=O","-","-","-","4-Hexadecyloxybenzoic acid","132.0","?C","405.0","K","","","","","","-","","-","","-","","-"
"CC(=O)NCCCCCCNC(C)=O","-","-","-","N,N'-Hexamethylenebisacetamide","128.0 - 129.0","?C","401.5","K","","","","","","-","","-","","-","","-"
"ClC1=CNC(=O)NC1=O","-","-","-","5-Chlorouracil","300.0","?C","573.0","K","","","","","","-","","-","","-","","-"
"CC(=O)C1=CC(O)=CC(O)=C1","-","-","-","3',5'-Dihydroxyacetophenone","143.0 - 147.0","?C","418.0","K","","","","","","-","","-","","-","","-"
"COC(=O)C1=CC(O)=NC(O)=N1","-","-","-","Methyl orotate","244.0","?C","517.0","K","","","","","","-","","-","","-","","-"
"CC1=C(O)C=CC=C1N","-","-","-","3-Amino-o-cresol","127.0 - 133.0","?C","403.0","K","","","","","","-","","-","","-","","-"
"BrC(=C(C1=CC=CC=C1)C1=CC=CC=C1)C1=CC=CC=C1","-","-","-","Bromotriphenylethylene","115.0 - 117.0","?C","389.0","K","","","","","","-","","-","","-","","-"
"CC1(C)OC(=O)C(C(=O)O1)C1=CC=CC=C1","-","-","-","2,2-Dimethyl-5-phenyl-1,3-dioxane-4,6-dione","135.0 - 140.0","?C","410.5","K","","","","","","-","","-","","-","","-"
"CN(C)C1=CC=C(C=C1)N=NC1=CC=C(N)C=C1","-","-","-","N,n-dimethyl-4,4'-azodianiline","189.0","?C","462.0","K","","","","","","-","","-","","-","","-"
"O=C(ON1C(=O)CCC1=O)ON1C(=O)CCC1=O","-","-","-","N,N'-Disuccinimidyl carbonate","190.0","?C","463.0","K","","","","","","-","","-","","-","","-"
"C[Si](C)(C)NC(=O)N[Si](C)(C)C","-","-","-","1,3-Bis(trimethylsilyl)urea","232.0","?C","505.0","K","","","","","","-","","-","","-","","-"
"ON1C(=O)C2C3CC(C=C3)C2C1=O","-","-","-","N-Hydroxy-5-norbornene-2,3-dicarboximide","167.0 - 170.0","?C","441.5","K","","","","","","-","","-","","-","","-"
"OCC1=CC=C2C(=O)C3=C(C=CC=C3)C(=O)C2=C1","-","-","-","2-(Hydroxymethyl)anthraquinone","192.0 - 197.0","?C","467.5","K","","","","","","-","","-","","-","","-"
"O1C2C=CC1C1=CC=CC=C21","-","-","-","1,4-Epoxy-1,4-dihydronaphthalene","53.0 - 58.0","?C","328.5","K","","","","","","-","","-","","-","","-"
"O=C1CC(C(=O)O1)=P(C1=CC=CC=C1)(C1=CC=CC=C1)C1=CC=CC=C1","-","-","-","2-(Triphenylphosphoranylidene)succinic anhydride","167.0","?C","440.0","K","","","","","","-","","-","","-","","-"
"NC(=O)C1CCCCC1","-","-","-","CYCLOHEXANECARBOXAMIDE","185.0 - 190.0","?C","460.5","K","","","","","","-","","-","","-","","-"
"O=C1C=CC(=O)N1C1=CC=C(CC2=CC=C(C=C2)N2C(=O)C=CC2=O)C=C1","-","-","-","1,1'-(Methylenedi-4,1-phenylene)bismaleimide","155.0 - 159.0","?C","430.0","K","","","","","","-","","-","","-","","-"
"O=C1C(NC2=CC=CC=C12)=C1NC2=C(C=CC=C2)C1=O","-","-","-","INDIGO","300.0","?C","573.0","K","","","","","","-","","-","","-","","-"
"CC1=CC=CC(N)=C1C(O)=O","-","-","-","2-Amino-6-methylbenzoic acid","124.0","?C","397.0","K","","","","","","-","","-","","-","","-"
"CC1=CC(N)=NO1","-","-","-","3-Amino-5-methylisoxazole","59.0 - 63.0","?C","334.0","K","","","","","","-","","-","","-","","-"
"OC1=C2C(=O)C=CC(=O)C2=C(O)C=C1","-","-","-","5,8-Dihydroxy-1,4-naphthoquinone","237.0","?C","510.0","K","","","","","","-","","-","","-","","-"
"NC(=O)NC1=CC=CC(O)=C1","-","-","-","1-(3-Hydroxyphenyl)urea","182.0 - 184.0","?C","456.0","K","","","","","","-","","-","","-","","-"
"OC(=O)C=CC1=CC=C(C=C1)C(F)(F)F","-","-","-","trans-4-(Trifluoromethyl)cinnamic acid","230.0 - 234.0","?C","505.0","K","","","","","","-","","-","","-","","-"
"OC(=O)CN(CCOCCOCCN(CC(O)=O)CC(O)=O)CC(O)=O","-","-","-","Ethylenebis(oxyethylenenitrilo)tetraacetic acid","240.0 - 245.0","?C","515.5","K","","","","","","-","","-","","-","","-"
"COC1=CC=C(C=C1O)C(O)C(O)=O","-","-","-","dl-3-Hydroxy-4-methoxymandelic acid","125.0 - 132.0","?C","401.5","K","","","","","","-","","-","","-","","-"
"BrCC1=CC(CBr)=C(CBr)C=C1CBr","-","-","-","1,2,4,5-Tetrakis(bromomethyl)benzene","156.0 - 162.0","?C","432.0","K","","","","","","-","","-","","-","","-"
"OC1=CC=C(O)C2=CC=CC=C12","-","-","-","Naphthalene-1,4-diol","188.0 - 192.0","?C","463.0","K","","","","","","-","","-","","-","","-"
"OC(CBr)C(O)CBr","-","-","-","DL-1,4-Dibromo-2,3-butanediol","82.0 - 84.0","?C","356.0","K","","","","","","-","","-","","-","","-"
"CCCCCCCCCCCCCCC(Br)C(O)=O","-","-","-","2-Bromohexadecanoic acid","52.0 - 56.0","?C","327.0","K","","","","","","-","","-","","-","","-"
"CC(CC(C)C(O)=O)C(O)=O","-","-","-","2,4-Dimethylglutaric acid","104.0 - 108.0","?C","379.0","K","","","","","","-","","-","","-","","-"
"CC1(C)OC(CO)C(CO)O1","-","-","-","(+)-2,3-O-Isopropylidene-L-threitol","47.0 - 51.0","?C","322.0","K","","","","","","-","","-","","-","","-"
"CC1=CC(C)=C(C(C)=C1)S(=O)(=O)N1C=NC(=N1)[N+]([O-])=O","-","-","-","1-(Mesitylene-2-sulfonyl)-3-nitro-1,2,4-triazole","132.0 - 134.0","?C","406.0","K","","","","","","-","","-","","-","","-"
"CC1=CC=C(C=C1)S(=O)(=O)NN=CC1=C(C=CC=C1)[N+]([O-])=O","-","-","-","2-Nitrobenzaldehyde tosylhydrazone","153.0 - 156.0","?C","427.5","K","","","","","","-","","-","","-","","-"
"CC1=CC(C)=C(C(C)=C1)S(=O)(=O)N1C=CN=C1","-","-","-","N-Mesitylenesulfonylimidazole","95.0 - 99.0","?C","370.0","K","","","","","","-","","-","","-","","-"
"CC1=CC=C(C=C1)S(=O)(=O)N1C=CN=C1","-","-","-","1-(p-Toluenesulfonyl)imidazole","75.0 - 80.0","?C","350.5","K","","","","","","-","","-","","-","","-"
"CN1C2=C(NC(=O)N2)C(=O)N(C)C1=O","-","-","-","1,3-Dimethyluric acid","412.0 - 415.0","?C","686.5","K","","","","","","-","","-","","-","","-"
"COC(=O)C1=C(C=CC=C1)S(Cl)(=O)=O","-","-","-","Methyl 2-(chlorosulfonyl)benzoate","62.0 - 63.0","?C","335.5","K","","","","","","-","","-","","-","","-"
"OP1(=O)OC2=CC=C3C=CC=CC3=C2C2=C(O1)C=CC1=C2C=CC=C1","-","-","","(S)-(+)-1,1'-Binaphthyl-2,2'-diylhydrogenphosphate","320.0","?C","593.0","K","","","","","","-","","-","","-","","-"
"OCC1C(CC2OC(=O)CC12)OC(=O)C1=CC=C(C=C1)C1=CC=CC=C1","-","-","-","(-)-Corey lactone 4-phenylbenzoate alcohol","128.0 - 134.0","?C","404.0","K","","","","","","-","","-","","-","","-"
"CCC1CC(NC(=O)CNC(=O)CBr)C(C)(C)N1O","-","-","-","3-[2-(2-Bromoacetamido)acetamide]-PROXYL","145.0 - 147.0","?C","419.0","K","","","","","","-","","-","","-","","-"
"CCC1CC(NC(=O)CBr)C(C)(C)N1O","-","-","-","3-(2-Bromoacetamido)-PROXYL","148.0 - 150.0","?C","422.0","K","","","","","","-","","-","","-","","-"
"CC1(C)CC(CN2C(=O)C=CC2=O)C(C)(C)N1O","-","-","-","3-(Maleimidomethyl)-PROXYL","148.0 - 150.0","?C","422.0","K","","","","","","-","","-","","-","","-"
"CCC1CC(CC(C)(C)N1O)OC(=O)C1=CC=C(C=C1)[N+]([O-])=O","-","-","-","4-(4-Nitrobenzoyloxy)-TEMPO","145.0 - 147.0","?C","419.0","K","","","","","","-","","-","","-","","-"
"CC1(C)CC(C(=O)OC2=CC=C(C=C2)[N+]([O-])=O)C(C)(C)N1O","-","-","-","3-(4-Nitrophenoxycarbonyl)-PROXYL","77.0 - 80.0","?C","351.5","K","","","","","","-","","-","","-","","-"
"CN(C)C1=CC=CC2=C(C=CC=C12)S(=O)(=O)NC1CC(C)(C)N(O)C1(C)C","-","-","-","3-[5-(Dimethylamino)-1-naphthalenesulfonamido]-PROXYL","157.0 - 161.0","?C","432.0","K","","","","","","-","","-","","-","","-"
"CCC1CC(CC(C)(C)N1O)OP(O)(O)=O","-","-","-","4-Phosphonooxy-TEMPO hydrate","270.0","?C","543.0","K","","","","","","-","","-","","-","","-"
"CCOC(=O)OC(=O)C1=CC(C)(C)N(O)C1(C)C","-","-","-","3-[(Ethoxycarbonyl)oxycarbonyl]-2,5-dihydro-2,2,5,5-tetramethyl-1H-pyrrol-1-yloxy","64.0 - 65.0","?C","337.5","K","","","","","","-","","-","","-","","-"
"NC1=CC=CC(C(O)=O)=C1O","-","-","-","3-Aminosalicylic acid","240.0","?C","513.0","K","","","","","","-","","-","","-","","-"
"COC1=CC2=C(C=C1)N=C(S2)C#N","-","-","-","2-Cyano-6-methoxybenzothiazole","128.0 - 131.0","?C","402.5","K","","","","","","-","","-","","-","","-"
"CCCC(NC(=O)C(C)N)C(O)=O","-","-","-","DL-Alanyl-DL-norvaline","240.0 - 242.0","?C","514.0","K","","","","","","-","","-","","-","","-"
"CC(C)CC(NC(=O)CN)C(O)=O","-","-","-","N-Glycyl-L-leucine","233.0 - 235.0","?C","507.0","K","","","","","","-","","-","","-","","-"