"SMILES","CASRN","EXTERNALID","N","NAME","Melting Point","UNIT {Melting Point}","Melting Point {measured, converted}","UNIT {Melting Point}","Dataset","comment (property)","comment (chemical)","measurement method","Pressure","UNIT {Pressure}","Som set numeric condition","UNIT {Som set numeric condition}","Resp set numeric condition","UNIT {Resp set numeric condition}","Quality code","UNIT {Quality code}"
"OC1=C(S)C=CC=C1","-","-","-","2-Mercaptophenol","20.0","?C","293.0","K","","","","","","-","","-","","-","","-"
"CC(=O)C1=C(Br)C=C(F)C=C1","-","-","-","2'-bromo-4'-fluoroacetophenone","48.0 - 50.0","?C","322.0","K","","","","","","-","","-","","-","","-"
"CNC1=C(OC)C=CC=C1","-","-","-","2-Methoxy-N-methyaniline","30.0 - 33.0","?C","304.5","K","","","","","","-","","-","","-","","-"
"Cl[Si](Cl)(Cl)CCC#N","-","-","-","2-Cyanoethyltrichlorosilane","33.0 - 34.0","?C","306.5","K","","","","","","-","","-","","-","","-"
"CCOC(=O)C1=C(N(N=C1)C1=CC=C(Cl)C=C1)C(F)(F)F","-","-","-","Ethyl 1-(4-chlorophenyl)-5-(trifluoromethyl)-1H-pyrazole-4-carboxylate","50.0 - 52.0","?C","324.0","K","","","","","","-","","-","","-","","-"
"S=C=NC1=CC2=C(OCO2)C=C1","-","-","-","1,3-Benzodioxol-5-yl isothiocyanate","57.0 - 59.0","?C","331.0","K","","","","","","-","","-","","-","","-"
"COC1=C(O)C=C(C)C=C1","-","-","-","2-Methoxy-5-methylphenol","37.0 - 39.0","?C","311.0","K","","","","","","-","","-","","-","","-"
"COC1=CC=C2OC=CC2=C1","-","-","-","5-Methoxybenzofuran","31.0 - 33.0","?C","305.0","K","","","","","","-","","-","","-","","-"
"O=C(N1CCNCC1)C1=CC=CC=C1","-","-","-","1-Benzoylpiperazine","63.0 - 64.0","?C","336.5","K","","","","","","-","","-","","-","","-"
"CCC1=CC=C(CCl)C=C1","-","-","-","4-Ethylbenzyl chloride","-21.0","?C","252.0","K","","","","","","-","","-","","-","","-"
"FC1=CC2=C(CCC2=O)C=C1","-","-","-","6-Fluoro-1-indanone","61.0 - 63.0","?C","335.0","K","","","","","","-","","-","","-","","-"
"FC(F)=C(F)OC(F)(F)C(F)(F)C(F)(F)F","-","-","-","Heptafluoropropyltrifluorovinyl ether","-70.0","?C","203.0","K","","","","","","-","","-","","-","","-"
"COC(=O)C1=CC(I)=C(C=C1)C(=O)OC","-","-","-","Dimethyl iodoterephthalate","81.0 - 82.0","?C","354.5","K","","","","","","-","","-","","-","","-"
"COC1=CC=C(C=C1)C(=O)N=C=S","-","-","-","4-Methoxybenzoyl isothiocyanate","23.0 - 25.0","?C","297.0","K","","","","","","-","","-","","-","","-"
"NCCC1=CC=C(C=C1)C1=CC=CC=C1","-","-","-","2-(4-Biphenyl)ethylamine","53.0 - 55.0","?C","327.0","K","","","","","","-","","-","","-","","-"
"FC(F)(F)C1=C(C=NN1C1=CC=CC=C1)C(Cl)=O","-","-","-","1-Phenyl-5-(trifluoromethyl)-1H-pyrazole-4-carbonyl chloride","40.0 - 41.0","?C","313.5","K","","","","","","-","","-","","-","","-"
"FC(F)(F)C1=C(C=NN1C1=CC=C(Cl)C=C1)C(Cl)=O","-","-","-","1-(4-Chlorophenyl)-5-(trifluoromethyl)-1H-pyrazole-4-carbonyl chloride","51.0 - 53.0","?C","325.0","K","","","","","","-","","-","","-","","-"
"NCC1=CC(=CC=C1)C1=CC=CC=C1","-","-","-","3-Phenylbenzyl amine","28.0 - 30.0","?C","302.0","K","","","","","","-","","-","","-","","-"
"BrC1=CSC(C=O)=C1","-","-","-","4-Bromo-2-thiophenecarboxaldehyde","46.0 - 47.0","?C","319.5","K","","","","","","-","","-","","-","","-"
"CC1=CC(C)=C(C=C1C)N=C=S","-","-","-","2,4,5-Trimethylphenyl isothiocyanate","22.0 - 24.0","?C","296.0","K","","","","","","-","","-","","-","","-"
"CC1=C(C=CC(Br)=C1)N=C=S","-","-","-","4-Bromo-2-methylphenyl isothiocyanate","45.0 - 46.0","?C","318.5","K","","","","","","-","","-","","-","","-"
"OC(C1=CC=CC=C1)C1=C(F)C(F)=C(F)C(F)=C1F","-","-","-","2,3,4,5,6-Pentafluorobenzhydrol","54.0 - 57.0","?C","328.5","K","","","","","","-","","-","","-","","-"
"FC(F)(F)C(F)(F)C(F)(F)C(F)(F)C(F)(F)C(F)(F)C(F)(F)C(F)(F)C(F)(F)C(F)(F)CCI","-","-","-","2-(Perfluorodecyl)ethyl iodide","82.0 - 83.0","?C","355.5","K","","","","","","-","","-","","-","","-"
"CC(=O)C1=CC=C(C=C1)N=C=S","-","-","-","4-Acetylphenyl isothiocyanate","82.0 - 85.0","?C","356.5","K","","","","","","-","","-","","-","","-"
"CN(C)C1=CC=C(C=C1)N=C=S","-","-","-","4-(N,N-Dimethylamino)phenyl isothiocyanate","69.0 - 71.0","?C","343.0","K","","","","","","-","","-","","-","","-"
"CC(=C)C(=O)OCCC(F)(F)C(F)(F)C(F)(F)C(F)(F)C(F)(F)C(F)(F)C(F)(F)C(F)(F)C(F)(F)C(F)(F)F","-","-","-","2-(Perfluorodecyl)ethyl methacrylate","45.0 - 50.0","?C","320.5","K","","","","","","-","","-","","-","","-"
"COC(=O)C1=C(N)C=CS1","-","-","-","Methyl 3-amino-2-thiophenecarboxylate","66.0 - 67.0","?C","339.5","K","","","","","","-","","-","","-","","-"
"FC(F)(F)C1=C(Cl)C=CC(=C1)N=C=S","-","-","-","4-Chloro-3-(trifluoromethyl)phenyl isothiocyanate","34.0 - 36.0","?C","308.0","K","","","","","","-","","-","","-","","-"
"FC(F)(F)C1=CC=C(C=C1)N1C=CN=C1","-","-","-","1-(4-Trifluoromethylphenyl)imidazole","71.0 - 73.0","?C","345.0","K","","","","","","-","","-","","-","","-"
"OC(=O)CCC(F)(F)C(F)(F)C(F)(F)C(F)(F)C(F)(F)C(F)(F)F","-","-","-","2H,2H,3H,3H-Perfluorononanoic acid","62.0 - 64.0","?C","336.0","K","","","","","","-","","-","","-","","-"
"[O-][N+](=O)C1=CC=C(C=C1)C(=O)N=C=S","-","-","-","4-Nitrobenzoyl isothiocyanate","90.0 - 92.0","?C","364.0","K","","","","","","-","","-","","-","","-"
"OCC(F)(F)C(F)(F)C(F)(F)C(F)(F)C(F)(F)C(F)(F)C(F)(F)C(F)(F)C(F)(F)C(F)F","-","-","-","1H,1H,11H-Eicosafluoro-1-undecanol","95.0 - 97.0","?C","369.0","K","","","","","","-","","-","","-","","-"
"CC(=O)C1=CC=CC(=C1)N=C=S","-","-","-","3-Acetylphenyl isothiocyanate","26.0 - 28.0","?C","300.0","K","","","","","","-","","-","","-","","-"
"FC(F)(F)C1(F)C(F)(F)C(F)(F)C(F)(F)C(F)(C(F)(F)F)C1(F)F","-","-","-","Perfluoro-1,3-dimethylcyclohexane","-55.0","?C","218.0","K","","","","","","-","","-","","-","","-"
"FC1=C(Cl)C=C(C=O)C=C1","-","-","-","3-Chloro-4-fluorobenzaldehyde","28.0 - 30.0","?C","302.0","K","","","","","","-","","-","","-","","-"
"S=C=NCC(C1=CC=CC=C1)C1=CC=CC=C1","-","-","-","2,2-Diphenylethylisothiocyanate","36.0 - 38.0","?C","310.0","K","","","","","","-","","-","","-","","-"
"FC(F)C(F)(F)C(F)(F)C(F)(F)C(F)(F)C(F)(F)C(F)(F)C(F)(F)C(F)(F)C(F)F","-","-","-","1H,10H-Perfluorodecane","42.0 - 43.0","?C","315.5","K","","","","","","-","","-","","-","","-"
"FC1(F)C(F)(F)C(F)(Cl)C1(F)Cl","-","-","-","1,2-Dichlorohexafluorocyclobutane","-15.0","?C","258.0","K","","","","","","-","","-","","-","","-"
"OC(=O)C(F)C(F)(F)F","-","-","-","2,3,3,3-Tetrafluoropropanoic acid","28.2 - 29.2","?C","301.7","K","","","","","","-","","-","","-","","-"
"OCC(F)(F)C(F)(F)C(F)(F)C(F)(F)C(F)(F)C(F)(F)C(F)(F)C(F)F","-","-","-","1H,1H,9H-Hexadecafluorononanol","58.0 - 60.0","?C","332.0","K","","","","","","-","","-","","-","","-"
"FC(F)(F)C1=CC=C(C=O)C=N1","-","-","-","6-(Trifluoromethyl)pyridine-3-carboxaldehyde","53.0 - 55.0","?C","327.0","K","","","","","","-","","-","","-","","-"
"OC1=C(Cl)C=C(F)C=C1Cl","-","-","-","2,6-Dichloro-4-fluorophenol","49.0 - 52.0","?C","323.5","K","","","","","","-","","-","","-","","-"
"CC1=CC(=C(F)C=C1)[N+]([O-])=O","-","-","-","4-Fluoro-3-nitrotoluene","28.0 - 30.0","?C","302.0","K","","","","","","-","","-","","-","","-"
"COC(=O)C1=CC(=CC(Br)=C1)C(=O)OC","-","-","-","Dimethyl 5-bromoisophthalate","89.0 - 91.0","?C","363.0","K","","","","","","-","","-","","-","","-"
"N#CCC1=COC2=CC=CC=C12","-","-","-","1-Benzofuran-3-ylacetonitrile","39.0 - 41.0","?C","313.0","K","","","","","","-","","-","","-","","-"
"COC(=O)C1=CC=C(C)N=C1","-","-","-","Methyl 6-methylnicotinate","34.0 - 37.0","?C","308.5","K","","","","","","-","","-","","-","","-"
"FC(F)OCC(F)(F)C(F)(F)F","-","-","-","2,2,3,3,3-Pentafluoropropyl difluoromethyl ether","-107.0","?C","166.0","K","","","","","","-","","-","","-","","-"
"ClC1=CC=C(C=C1)C1=NNC=C1","-","-","-","3-(4-chlorophenyl)-1H-pyrazole","80.0 - 84.0","?C","355.0","K","","","","","","-","","-","","-","","-"
"FC1=C(F)C=C(S)C=C1","-","-","-","3,4-Difluorothiophenol","34.0 - 38.0","?C","309.0","K","","","","","","-","","-","","-","","-"
"FC(F)C(=O)CC(=O)C1=CC=CC=C1","-","-","-","4,4-Difluoro-1-phenyl-1,3-butanedione","37.0 - 45.0","?C","314.0","K","","","","","","-","","-","","-","","-"
"FC1=CC(C#N)=C(F)C=C1","-","-","-","2,5-Difluorobenzonitrile","33.0 - 35.0","?C","307.0","K","","","","","","-","","-","","-","","-"
"FC1=CC=C(C=C1)C(=O)C(F)(F)F","-","-","-","4-Fluoro-alpha,alpha,alpha-trifluoroacetophenone","24.0 - 27.0","?C","298.5","K","","","","","","-","","-","","-","","-"
"FC(F)(F)C(F)(Br)C(F)(F)Br","-","-","-","()-1,2-Dibromohexafluoropropane","-95.0","?C","178.0","K","","","","","","-","","-","","-","","-"
"COC1=CC(OC)=CC(CCl)=C1","-","-","-","3,5-Dimethoxybenzyl chloride","46.0 - 48.0","?C","320.0","K","","","","","","-","","-","","-","","-"
"OC(=O)C(F)(F)C(F)(F)C(F)(F)C(F)(F)C(F)(F)C(F)(F)C(F)(F)C(F)(F)C(F)(F)C(F)(F)C(F)(F)C(F)(F)C(F)(F)C(F)(F)C(F)(F)F","-","-","-","Perfluorohexadecanoic acid","154.0 - 155.0","?C","427.5","K","","","","","","-","","-","","-","","-"
"COC(=O)C(CC1=CC=CC=C1)N=C=S","-","-","-","Methyl L-2-isothiocyanato-3-phenylpropionate","34.0 - 36.0","?C","308.0","K","","","","","","-","","-","","-","","-"
"CC1=CC=C2C=C(Cl)C(Cl)=CC2=N1","-","-","-","6,7-Dichloroquinaldine","121.0 - 123.0","?C","395.0","K","","","","","","-","","-","","-","","-"
"CCC(=O)C1=CC=C(C=C1)C(F)(F)F","-","-","-","4'-(Trifluoromethyl)propiophenone","36.0 - 37.0","?C","309.5","K","","","","","","-","","-","","-","","-"
"CC1=CN=C(O[Si](C)(C)C)N=C1O[Si](C)(C)C","-","-","","0,0-Bis (trimethylsilyl)thymine","73.0 - 75.0","?C","347.0","K","","","","","","-","","-","","-","","-"
"CC(O)C1=C(F)C(F)=C(F)C(F)=C1F","-","-","-","1-(Pentafluorophenyl)ethanol","34.0 - 37.0","?C","308.5","K","","","","","","-","","-","","-","","-"
"OCC#CC1=CC(=CC(=C1)C(F)(F)F)C(F)(F)F","-","-","-","3-[3,5-Bis(trifluoromethyl)phenyl]prop-2-yn-1-ol","58.0 - 60.0","?C","332.0","K","","","","","","-","","-","","-","","-"
"OCC(F)(F)C(F)(F)C(F)(F)C(F)(F)C(F)(F)C(F)(F)CO","-","-","-","2,2,3,3,4,4,5,5,6,6,7,7-Dodecafluoro-1,8-octanediol","80.0 - 83.0","?C","354.5","K","","","","","","-","","-","","-","","-"
"CC1=CC(C)=C(Br)C(C)=C1[N+]([O-])=O","-","-","-","3-Bromo-2,4,6-trimethylnitrobenzene","64.0 - 66.0","?C","338.0","K","","","","","","-","","-","","-","","-"
"OC(C(O)(C(F)(F)F)C(F)(F)F)(C(F)(F)F)C(F)(F)F","-","-","-","Hexafluoro-2,3-bis(trifluoromethyl)butane-2,3-diol","18.0 - 20.0","?C","292.0","K","","","","","","-","","-","","-","","-"
"OCC(O)CC(F)(F)C(F)(F)C(F)(F)C(F)(F)C(F)(F)C(F)(F)C(F)(F)C(F)(F)F","-","-","-","1H,1H,2H,3H,3H-Perfluoroundecan-1,2-diol","114.0 - 116.0","?C","388.0","K","","","","","","-","","-","","-","","-"
"CC1=CC=C(C=C1)C(=O)C(F)(F)C(F)(F)F","-","-","-","2,2,3,3,3-Pentafluoro-1-p-tolyl-propan-1-one","4.0","?C","277.0","K","","","","","","-","","-","","-","","-"
"CCOC(=O)C1=CC=C(F)C=C1F","-","-","-","ethyl 2,4-difluorobenzoate","65.0 - 67.0","?C","339.0","K","","","","","","-","","-","","-","","-"
"CC(=O)CSC1=CC=C(C)C=C1","-","-","-","1-[(4-Methylphenyl)thio]acetone","96.0 - 98.0","?C","370.0","K","","","","","","-","","-","","-","","-"
"NC1=CC(F)=C(C(F)=C1)C(F)(F)F","-","-","-","4-Amino-2,6-difluorobenzotrifluoride","66.0","?C","339.0","K","","","","","","-","","-","","-","","-"
"BrC1=C(C=CC=C1)N=C=S","-","-","-","2-Bromophenyl isothiocyanate","20.0","?C","293.0","K","","","","","","-","","-","","-","","-"
"C[Si](C)(C)C1=CC=C(C=C1)[Si](C)(C)C","-","-","-","1,4-Bis(trimethylsilyl)benzene","92.0 - 96.0","?C","367.0","K","","","","","","-","","-","","-","","-"
"NC(=S)NC1=C(C=CC=C1)C(F)(F)F","-","-","-","1-[2-(Trifluoromethyl)phenyl]-2-thiourea","158.0 - 159.0","?C","431.5","K","","","","","","-","","-","","-","","-"
"COC(=O)C1=CN=C(Cl)N=C1C(F)(F)F","-","-","-","Methyl 2-chloro-4-(trifluoromethyl)pyrimidine-5-carboxylate","253.0 - 254.0","?C","526.5","K","","","","","","-","","-","","-","","-"
"COC1=CC=CC=C1CN=C=S","-","-","-","2-methoxybenzyl isothiocyanate","28.0","?C","301.0","K","","","","","","-","","-","","-","","-"
"C[Si]12OCCN(CCO1)CCO2","-","-","-","Methylsilatrane","152.0","?C","425.0","K","","","","","","-","","-","","-","","-"
"Cl[Si](Cl)(Cl)CC[Si](Cl)(Cl)Cl","-","-","-","1,2-Bis(trichlorosilyl)ethane","24.5","?C","297.5","K","","","","","","-","","-","","-","","-"
"CC(=O)C1=CC(Cl)=C(F)C=C1","-","-","-","1-(3-Chloro-4-fluorophenyl)ethan-1-one","42.0 - 44.0","?C","316.0","K","","","","","","-","","-","","-","","-"
"O=C=N[Si](N=C=O)(N=C=O)N=C=O","-","-","-","Tetra(isocyanato)silane","26.0","?C","299.0","K","","","","","","-","","-","","-","","-"
"[O-][N+](=O)C1=CC(Cl)=CC=C1F","-","-","-","5-chloro-2-fluoronitrobenzene","8.3","?C","281.3","K","","","","","","-","","-","","-","","-"
"F[Si](C1=CC=CC=C1)(C1=CC=CC=C1)C1=CC=CC=C1","-","-","-","Triphenylfluorosilane","257.0","?C","530.0","K","","","","","","-","","-","","-","","-"
"CC1=C(C=CC=C1)N1CCNCC1","-","-","-","1-(2-Methylphenyl)piperazine","48.0 - 52.0","?C","323.0","K","","","","","","-","","-","","-","","-"
"CC1=CC=C(C=C1)N1CCNCC1","-","-","-","1-(4-Methylphenyl)piperazine","29.0 - 34.0","?C","304.5","K","","","","","","-","","-","","-","","-"
"CC1=C(F)C=CC(O)=C1","-","-","-","4-Fluoro-3-methylphenol","32.0","?C","305.0","K","","","","","","-","","-","","-","","-"
"C1NCC2=CC=CC=C12","-","-","-","Isoindoline","17.0","?C","290.0","K","","","","","","-","","-","","-","","-"
"FC(F)(F)C1=CC=C(Br)N=C1","-","-","-","2-Bromo-5-(trifluoromethyl)pyridine","46.0 - 47.0","?C","319.5","K","","","","","","-","","-","","-","","-"
"CC1=CC(C)=C(N=C=S)C(C)=C1","-","-","-","Mesityl isothiocyanate","63.0 - 64.0","?C","336.5","K","","","","","","-","","-","","-","","-"
"CCOC(=O)C1=C(Cl)N=C(N=C1)C(F)(F)F","-","-","-","Ethyl 4-chloro-2-(trifluoromethyl)pyrimidine-5-carboxylate","36.0 - 37.0","?C","309.5","K","","","","","","-","","-","","-","","-"
"OC(=O)C(F)(F)C(F)(F)C(F)(F)C(F)(F)C(F)(F)C(F)(F)C(F)(F)C(F)F","-","-","-","9H-Hexadecafluorononanoic acid","67.0","?C","340.0","K","","","","","","-","","-","","-","","-"
"FC(F)(Br)C(F)(F)C(F)(F)C(F)(F)C(F)(F)C(F)(F)C(F)(F)C(F)(F)Br","-","-","-","1,8-Dibromoperfluorooctane","40.0","?C","313.0","K","","","","","","-","","-","","-","","-"
"FC1=CC(F)=C(C#N)C(F)=C1","-","-","-","2,4,6-Trifluorobenzonitrile","57.0 - 61.0","?C","332.0","K","","","","","","-","","-","","-","","-"
"NC(=O)C1(CCNCC1)N1CCCCC1","-","-","-","(1,4'-Bipiperidine)-4'-carboxamide","129.0 - 132.0","?C","403.5","K","","","","","","-","","-","","-","","-"
"CC(=C)N1C(=O)NC2=C1C=CC=C2","-","-","-","1,3-Dihydro-1-(1-methylethenyl)-2H-benzimidazole-2-one","120.0 - 124.0","?C","395.0","K","","","","","","-","","-","","-","","-"
"ClCCCN1C(=O)NC2=C1C=CC=C2","-","-","-","1-(3-Chloropropyl)-1,3-dihydro-2H-benzimidazol-2-one","115.0 - 125.0","?C","393.0","K","","","","","","-","","-","","-","","-"
"CC(=O)NC(=C)C(O)=O","-","-","-","2-Acetamidoacrylic acid","184.0 - 187.0","?C","458.5","K","","","","","","-","","-","","-","","-"
"CC(=O)NC1=CC=C(S)C=C1","-","-","-","4-Acetamidothiophenol","149.0 - 154.0","?C","424.5","K","","","","","","-","","-","","-","","-"
"OC(=O)C#CC(O)=O","-","-","-","acetylenedicarboxylic acid","180.0 - 187.0","?C","456.5","K","","","","","","-","","-","","-","","-"
"CC(=O)NCC(O)=O","-","-","-","N-ACETYLGLYCINE","207.0 - 209.0","?C","481.0","K","","","","","","-","","-","","-","","-"
"CC(=O)NNC(N)=S","-","-","-","1-Acetylthiosemicarbazide","165.0 - 170.0","?C","440.5","K","","","","","","-","","-","","-","","-"
"CC(N)C(O)=O","-","-","-","L-alanine","314.0 - 316.0","?C","588.0","K","","","","","","-","","-","","-","","-"
"NNC(=S)NCC=C","-","-","-","4-Allylthiosemicarbazide","93.0 - 96.0","?C","367.5","K","","","","","","-","","-","","-","","-"
"NCCCC(O)=O","-","-","-","4-aminobutyric acid","197.0 - 204.0","?C","473.5","K","","","","","","-","","-","","-","","-"
"NC1=C(C=C(Cl)C=C1)C(O)=O","-","-","-","2-AMINO-5-CHLOROBENZOIC ACID","209.0 - 213.0","?C","484.0","K","","","","","","-","","-","","-","","-"
"CSC1=NC(Cl)=CC(N)=N1","-","-","-","4-Amino-6-chloro-2-methylmercaptopyrimidine","130.0 - 134.0","?C","405.0","K","","","","","","-","","-","","-","","-"
"NC1(CCCC1)C(O)=O","-","-","-","1-Amino-1-cyclopentanecarboxylic acid","320.0 - 322.0","?C","594.0","K","","","","","","-","","-","","-","","-"
"NC1=NC(O)=CC(O)=N1","-","-","-","2-Amino-4,6-dihydroxypyrimidine","300.0","?C","573.0","K","","","","","","-","","-","","-","","-"
"CC1=CC2=C(C=C1C)N=C(N)S2","-","-","-","2-AMINO-5,6-DIMETHYLBENZOTHIAZOLE","185.0 - 189.0","?C","460.0","K","","","","","","-","","-","","-","","-"
"NCCOS(O)(=O)=O","-","-","-","2-Aminoethyl hydrogen sulfate","277.0 - 280.0","?C","551.5","K","","","","","","-","","-","","-","","-"
"NC1=CC=C2C(=C1)C(=O)C1=C2C=CC=C1","-","-","-","2-Amino-9-fluorenone","152.0 - 157.0","?C","427.5","K","","","","","","-","","-","","-","","-"
"NCC(O)CC(O)=O","-","-","-","DL-4-Amino-3-hydroxybutyric acid","202.0","?C","475.0","K","","","","","","-","","-","","-","","-"
"CC1=CC(O)=NC(N)=N1","-","-","-","2-Amino-4-hydroxy-6-methylpyrimidine","300.0","?C","573.0","K","","","","","","-","","-","","-","","-"
"NC1=NC(O)=NC2=C1C=NN2","-","-","-","4-Amino-6-hydroxypyrazolo[3,4-d]pyrimidine","320.0","?C","593.0","K","","","","","","-","","-","","-","","-"
"NC1=NC(S)=NC2=C1C=NN2","-","-","-","4-Amino-6-mercaptopyrazolo[3,4-d]pyrimidine","300.0","?C","573.0","K","","","","","","-","","-","","-","","-"
"NC1=C2C=CC=C3C(=O)NC(=O)C(C=C1)=C23","-","-","-","4-Amino-1,8-naphthalimide","360.0","?C","633.0","K","","","","","","-","","-","","-","","-"
"NC1=NC=CC=C1C(O)=O","-","-","-","2-Aminonicotinic acid","295.0 - 297.0","?C","569.0","K","","","","","","-","","-","","-","","-"
"NC1=NC=C(S1)S(=O)(=O)C1=CC=C(C=C1)[N+]([O-])=O","-","-","-","2-Amino-5-(4-nitrophenylsulfonyl)-thiazole","222.0 - 226.0","?C","497.0","K","","","","","","-","","-","","-","","-"
"CC1(C)SC2C(N)C(=O)N2C1C(O)=O","-","-","-","6-amino-2,2-dimethyl-5-oxoperhydroazeto[2,1-b][1,3]thiazole-3-carboxylic acid","198.0 - 200.0","?C","472.0","K","","","","","","-","","-","","-","","-"
"NC1=NN(C(=O)C1)C1=CC=CC=C1","-","-","-","3-amino-1-phenyl-2-pyrazolin-5-one","210.0 - 215.0","?C","485.5","K","","","","","","-","","-","","-","","-"
"NCCCS(O)(=O)=O","-","-","-","3-Amino-1-propanesulfonic acid","270.0","?C","543.0","K","","","","","","-","","-","","-","","-"
"NC1=NC2=C(N=CN2)C(S)=N1","-","-","-","2-Amino-6-purinethiol","360.0","?C","633.0","K","","","","","","-","","-","","-","","-"
"NC1=NC=CN=C1C(O)=O","-","-","-","3-Aminopyrazine-2-carboxylic acid","201.0 - 205.0","?C","476.0","K","","","","","","-","","-","","-","","-"
"NC1=NNC=C1C(O)=O","-","-","-","3-Aminopyrazole-4-carboxylic acid","118.0","?C","391.0","K","","","","","","-","","-","","-","","-"
"NC1=NC=NC2=C1C=NN2","-","-","-","4-Aminopyrazolo[3,4-d]pyrimidine","325.0","?C","598.0","K","","","","","","-","","-","","-","","-"
"OC(=O)C1=C2C=CC=CC2=CC2=C1C=CC=C2","-","-","-","ANTHRACENE-9-CARBOXYLIC ACID","214.0 - 218.0","?C","489.0","K","","","","","","-","","-","","-","","-"
"OC1=CC2=C(C=C1)C(=O)C1=CC(O)=CC=C1C2=O","-","-","-","2,6-Dihydroxyanthraquinone","300.0","?C","573.0","K","","","","","","-","","-","","-","","-"
"OC(=O)C1CCN1","-","-","-","(S)-(-)-2-Azetidinecarboxylic acid","206.0 - 207.0","?C","479.5","K","","","","","","-","","-","","-","","-"
"NC(=O)N=NC(N)=O","-","-","-","Azodicarbonamide","195.0 - 202.0","?C","471.5","K","","","","","","-","","-","","-","","-"
"COC1=CC=C(C=C1)N=[N+]([O-])C1=CC=C(OC)C=C1","-","-","-","4,4'-Azoxyanisole","132.0","?C","405.0","K","","","","","","-","","-","","-","","-"
"OC(=O)C1=CC(C(O)=O)=C(C=C1C(O)=O)C(O)=O","-","-","-","1,2,4,5-Benzenetetracarboxylic acid","281.0 - 284.5","?C","555.8","K","","","","","","-","","-","","-","","-"
"OC(=O)C1=CC(=CC(=C1)C(O)=O)C(O)=O","-","-","-","1,3,5-BENZENETRICARBOXYLIC ACID","380.0","?C","653.0","K","","","","","","-","","-","","-","","-"
"O=C1C2=CC=CC=C2C(=C(C2=CC=CC=C2)C2=CC=CC=C2)C2=C1C=CC=C2","-","-","-","9-Benzhydrylidene-10-anthrone","203.0 - 207.0","?C","478.0","K","","","","","","-","","-","","-","","-"
"NN=C(C(=O)C1=CC=CC=C1)C1=CC=CC=C1","-","-","-","Benzil monohydrazone","147.0 - 151.0","?C","422.0","K","","","","","","-","","-","","-","","-"