"SMILES","CASRN","EXTERNALID","N","NAME","Melting Point","UNIT {Melting Point}","Melting Point {measured, converted}","UNIT {Melting Point}","Dataset","comment (property)","comment (chemical)","measurement method","Pressure","UNIT {Pressure}","Som set numeric condition","UNIT {Som set numeric condition}","Resp set numeric condition","UNIT {Resp set numeric condition}","Quality code","UNIT {Quality code}"
"COC(=O)C(CC(O)=O)CC1=CC=C2C=CC=CC2=C1","-","-","-","(S)-2-(2-Naphthylmethyl)succinic acid-1-methyl ester","64.7","?C","337.7","K","","","","","","-","","-","","-","","-"
"CC1(C)OC2C3CC(C2O1)C(=O)N3","-","-","-","(1S,2R,6S,7R)-4,4-Dimethyl-3,5-dioxa-8-azatricyclo[5.2.1.0(2,6)]decan-9-one","150.0 - 152.0","?C","424.0","K","","","","","","-","","-","","-","","-"
"O=C1NC2CCC1C2","-","-","-","(1S,4R)-2-Azabicyclo[2.2.1]heptan-3-one","76.2","?C","349.2","K","","","","","","-","","-","","-","","-"
"NC1CC(C=C1)C(O)=O","-","-","-","(1R,4S)-4-Aminocyclopent-2-enecarboxylic acid","180.0","?C","453.0","K","","","","","","-","","-","","-","","-"
"NC1CCC(C1)C(O)=O","-","-","-","(1S,3R)-3-Aminocyclopentanecarboxylic acid","192.0","?C","465.0","K","","","","","","-","","-","","-","","-"
"COC(=O)C1CC(O)C(C1)NC(=O)OC(C)(C)C","-","-","-","(1S,2S,4S)-N-Boc-1-Amino-2-hydroxycyclopentane-4-carboxylic acid methyl ester","71.2","?C","344.2","K","","","","","","-","","-","","-","","-"
"OC(=O)C(CC1=CC(Br)=CC=C1)NC(=O)OCC1C2=C(C=CC=C2)C2=C1C=CC=C2","-","-","-","(R)-N-Fmoc-3-Bromophenylalanine","145.9","?C","418.9","K","","","","","","-","","-","","-","","-"
"OC(=O)C(CC1=CC=C(Br)S1)NC(=O)OCC1C2=C(C=CC=C2)C2=C1C=CC=C2","-","-","-","(R)-N-Fmoc-2-(5-Bromothienyl)alanine","158.1","?C","431.1","K","","","","","","-","","-","","-","","-"
"OC(=O)C(CC1=CC2=C(C=CC=C2)C=C1)NC(=O)OCC1C2=C(C=CC=C2)C2=C1C=CC=C2","-","-","-","(R)-N-Fmoc-2-Naphthylalanine","191.0","?C","464.0","K","","","","","","-","","-","","-","","-"
"OC(=O)C(CC1=NC=CC=C1)NC(=O)OCC1C2=C(C=CC=C2)C2=C1C=CC=C2","-","-","-","(R)-N-Fmoc-(2-Pyridyl)alanine","154.5","?C","427.5","K","","","","","","-","","-","","-","","-"
"OC(=O)C(CC1=CC=CS1)NC(=O)OCC1C2=C(C=CC=C2)C2=C1C=CC=C2","-","-","-","(R)-N-Fmoc-2-Thienylalanine","169.0","?C","442.0","K","","","","","","-","","-","","-","","-"
"OC(=O)CC(NC(=O)OCC1C2=C(C=CC=C2)C2=C1C=CC=C2)C1=CC=C(Br)C=C1","-","-","-","(R)-N-Fmoc-3-Amino-3-(4-bromophenyl)propanoic acid","192.0","?C","465.0","K","","","","","","-","","-","","-","","-"
"OC(=O)C(CC1=C(F)C=CC=C1)NC(=O)OCC1C2=C(C=CC=C2)C2=C1C=CC=C2","-","-","-","(R)-N-Fmoc-2-Fluorophenylalanine","145.3","?C","418.3","K","","","","","","-","","-","","-","","-"
"OC(=O)C(CC1=CC=C(Cl)C=C1)NC(=O)OCC1C2=C(C=CC=C2)C2=C1C=CC=C2","-","-","-","(R)-N-Fmoc-4-Chlorophenylalanine","147.2","?C","420.2","K","","","","","","-","","-","","-","","-"
"OC(=O)C(CC1=CC=CN=C1)NC(=O)OCC1C2=C(C=CC=C2)C2=C1C=CC=C2","-","-","-","(R)-N-Fmoc-(3-Pyridyl)alanine","166.5","?C","439.5","K","","","","","","-","","-","","-","","-"
"COC1=C(CC(NC(=O)OC(C)(C)C)C(O)=O)C=C(Br)C=C1","-","-","-","(R)-N-Boc-(5-Bromo-2-methoxyphenyl)alanine","132.3","?C","405.3","K","","","","","","-","","-","","-","","-"
"CC(C)(C)OC(=O)NC(CC1=CC2=C(C=CC=C2)C=C1)C(O)=O","-","-","-","(R)-N-Boc-2-Naphthylalanine","90.0","?C","363.0","K","","","","","","-","","-","","-","","-"
"CC(C)(C)OC(=O)NC(CC1=CC=C(C=C1)C#N)C(O)=O","-","-","-","(R)-N-Boc-4-Cyanophenylalanine","152.6","?C","425.6","K","","","","","","-","","-","","-","","-"
"CC(C)(C)OC(=O)NC(CC1=CC=CN=C1)C(O)=O","-","-","-","(R)-N-Boc-(3-Pyridyl)alanine","136.8","?C","409.8","K","","","","","","-","","-","","-","","-"
"CC(C)(C)OC(=O)NC(CC1=C2C=CC=CC2=CC=C1)C(O)=O","-","-","-","(R)-N-Boc-1-Naphthylalanine","145.0 - 148.0","?C","419.5","K","","","","","","-","","-","","-","","-"
"CC(C)(C)OC(=O)NC(CC1=CC=NC=C1)C(O)=O","-","-","-","(R)-N-Boc-(4-Pyridyl)alanine","225.0 - 229.0","?C","500.0","K","","","","","","-","","-","","-","","-"
"OCC(C=C)N1C(=O)C2=CC=CC=C2C1=O","-","-","-","(R)-N-Phthaloyl-2-aminobut-3-en-1-ol","62.2","?C","335.2","K","","","","","","-","","-","","-","","-"
"CC1=CC=C(C=C1)S(=O)(=O)NC(C(N)C1=CC=CC=C1)C1=CC=CC=C1","-","-","-","(1S,2S)-(+)-N-(4-Toluenesulfonyl)-1,2-diphenylethylenediamine","127.0 - 130.0","?C","401.5","K","","","","","","-","","-","","-","","-"
"FC1=C(F)C(F)=C(P(CCP(C2=C(F)C(F)=C(F)C(F)=C2F)C2=C(F)C(F)=C(F)C(F)=C2F)C2=C(F)C(F)=C(F)C(F)=C2F)C(F)=C1F","-","-","-","1,2-Bis(dipentafluorophenylphosphino)ethane","190.0 - 195.0","?C","465.5","K","","","","","","-","","-","","-","","-"
"C1C2C=CC1C(C2P(C1=CC=CC=C1)C1=CC=CC=C1)P(C1=CC=CC=C1)C1=CC=CC=C1","-","-","-","(2R,3R)-(-)-2,3-Bis(diphenylphosphino)bicyclo[2.2.1]hept-5-ene","120.0 - 125.0","?C","395.5","K","","","","","","-","","-","","-","","-"
"C1N(N=C(N1C1=CC=CC=C1)C1=CC=CC=C1)C1=CC=CC=C1","-","-","-","1,3,4-Triphenyl-4,5-dihydro-1H-1,2,4-triazol-5-ylidene","150.0","?C","423.0","K","","","","","","-","","-","","-","","-"
"OC(C(N1CCCCC1)C1=CC=CC=C1)(C1=CC=CC=C1)C1=CC=CC=C1","-","-","-","(R)-2-Piperidinyl-1,1,2-triphenylethanol","158.0","?C","431.0","K","","","","","","-","","-","","-","","-"
"OCC1=C(Cl)C(Cl)=CC=C1","-","-","-","2,3-Dichlorobenzyl alcohol","94.0 - 88.0","?C","364.0","K","","","","","","-","","-","","-","","-"
"CC(C)(C)OC(=O)NC(CC1=CC=C(F)C=C1)C(O)=O","-","-","-","(R)-N-Boc-4-Fluorophenylalanine","130.2","?C","403.2","K","","","","","","-","","-","","-","","-"
"NC1CCCCC1N","-","-","-","(1R,2R)-(-)-1,2-Diaminocyclohexane","40.0 - 45.0","?C","315.5","K","","","","","","-","","-","","-","","-"
"OC1=CC=C2N=CC=CC2=C1","-","-","-","6-hydroxyquinoline","190.0 - 195.0","?C","465.5","K","","","","","","-","","-","","-","","-"
"COC1=CC=CC(OC)=C1P(C1=C(OC)C=CC=C1OC)C1=C(OC)C=CC=C1OC","-","-","-","Tris(2,6-dimethoxyphenyl)phosphine","155.0","?C","428.0","K","","","","","","-","","-","","-","","-"
"CC(C)(C)C1CCC(CC1)C(O)=O","-","-","-","trans-4-tert-Butylcyclohexanecarboxylic acid","170.0 - 175.0","?C","445.5","K","","","","","","-","","-","","-","","-"
"COC1=CC2=C(C=C1)C(CBr)=CC(=O)O2","-","-","-","4-(Bromomethyl)-7-methoxycoumarin","212.0 - 217.0","?C","487.5","K","","","","","","-","","-","","-","","-"
"BrCCCCCCCCN1C(=O)C2=CC=CC=C2C1=O","-","-","-","N-(8-Bromooctyl)phthalimide","49.0 - 56.0","?C","325.5","K","","","","","","-","","-","","-","","-"
"CN1C=NC2=C1C(N)=NC=N2","-","-","-","7-Methyladenine","323.0","?C","596.0","K","","","","","","-","","-","","-","","-"
"ClC1=CC=CC(CC#N)=C1Cl","-","-","-","2,3-Dichlorophenylacetonitrile","66.0 - 69.0","?C","340.5","K","","","","","","-","","-","","-","","-"
"COC1=C(OC)C(Cl)=C(C=O)C=C1","-","-","-","2-Chloro-3,4-dimethoxybenzaldehyde","71.0 - 72.0","?C","344.5","K","","","","","","-","","-","","-","","-"
"BrC1=C(Br)C(=O)C(=O)C(Br)=C1Br","-","-","-","Tetrabromo-o-benzoquinone","143.0 - 148.0","?C","418.5","K","","","","","","-","","-","","-","","-"
"OC1=C(Cl)C=C(C=C1Br)C1(OS(=O)(=O)C2=CC=CC=C12)C1=CC(Br)=C(O)C(Cl)=C1","-","-","-","Bromochlorophenol blue","230.0","?C","503.0","K","","","","","","-","","-","","-","","-"
"CC(=O)NC1=C(CCNC(=O)C2=C(O)C3=CC=CC=C3C=C2)C=CC=C1","-","-","-","N-(2-Acetamidophenethyl)-1-hydroxy-2-naphthamide","225.0 - 227.0","?C","499.0","K","","","","","","-","","-","","-","","-"
"O=C1C2=C(NC3=C1C=CC=C3)C=CC=C2","-","-","-","9(10H)-Acridone","360.0 - 362.0","?C","634.0","K","","","","","","-","","-","","-","","-"
"CC(C)(CS(O)(=O)=O)NC(=O)C=C","-","-","-","2-Acrylamido-2-methylpropanesulfonic acid","195.0","?C","468.0","K","","","","","","-","","-","","-","","-"
"C=CC(=O)ON1C(=O)CCC1=O","-","-","-","N-Acryloxysuccinimide","69.0","?C","342.0","K","","","","","","-","","-","","-","","-"
"OCC(CO)(CO)NC(=O)C=C","-","-","-","N-[Tris(hydroxymethyl)methyl]acrylamide","136.0 - 141.0","?C","411.5","K","","","","","","-","","-","","-","","-"
"NCCSS(O)(=O)=O","-","-","-","2-Aminoethanethiolsulfuric acid","191.0 - 194.0","?C","465.5","K","","","","","","-","","-","","-","","-"
"NC1=CC2=C(C=C1)C1(OC2=O)C2=CC=C(O)C=C2OC2=C1C=CC(O)=C2","-","-","-","Fluoresceinamine Isomer I","223.0","?C","496.0","K","","","","","","-","","-","","-","","-"
"NC1=C2C=CC=C(O)C2=CC=C1","-","-","-","5-Amino-1-naphthol","189.0","?C","462.0","K","","","","","","-","","-","","-","","-"
"NC1=C(C=C(C=C1)C(O)=O)[N+]([O-])=O","-","-","-","4-Amino-3-nitrobenzoic acid","290.0","?C","563.0","K","","","","","","-","","-","","-","","-"
"NC1=CC2=C(C=C1)C(=O)NC2=O","-","-","-","4-Aminophthalimide","290.0","?C","563.0","K","","","","","","-","","-","","-","","-"
"O=C1C=CC(=O)N1C1=CC=C(NC2=CC=CC=C2)C2=C1C=CC=C2","-","-","-","N-(1-Anilinonaphthyl-4)-maleimide","207.0","?C","480.0","K","","","","","","-","","-","","-","","-"
"[O-]S(=O)(=O)CCC[N+]1=C(SCC1)C=CNC1=CC=CC=C1","-","-","-","2-(2-Anilinovinyl)-3-(3-sulfopropyl)-2-thiazolinium inner salt","175.0","?C","448.0","K","","","","","","-","","-","","-","","-"
"N#CC1=C2C=CC=CC2=C(C#N)C2=C1C=CC=C2","-","-","-","9,10-Anthracenedicarbonitrile","337.0","?C","610.0","K","","","","","","-","","-","","-","","-"
"[O-][N+](=O)C1=CC=C(NCC2=CC=CC=C2)C2=NON=C12","-","-","-","4-Benzylamino-7-nitrobenzofurazan","206.0 - 209.0","?C","480.5","K","","","","","","-","","-","","-","","-"
"O=C1C=CC(=O)N1C1=CC=C(C=C1)C1=NC2=C(O1)C=CC=C2","-","-","-","N-[4-(2-Benzoxazolyl)phenyl]maleimide","211.0 - 213.0","?C","485.0","K","","","","","","-","","-","","-","","-"
"OC(=O)C=CC(=O)C1=CC=CC=C1","-","-","-","3-Benzoylacrylic acid","91.0 - 96.0","?C","366.5","K","","","","","","-","","-","","-","","-"
"O=C1NC(CC2=CC=CC=C2)CO1","-","-","-","(R)-4-Benzyl-2-oxazolidinone","87.0 - 90.0","?C","361.5","K","","","","","","-","","-","","-","","-"
"CN(C)C1=CC=C(C=C1)C(=O)C(=O)C1=CC=C(C=C1)N(C)C","-","-","-","4,4'-Bis(dimethylamino)benzil","202.0","?C","475.0","K","","","","","","-","","-","","-","","-"
"CN(C)C(=S)SC(=S)N(C)C","-","-","-","Bis(dimethylthiocarbamyl) sulfide","106.0 - 110.0","?C","381.0","K","","","","","","-","","-","","-","","-"
"CCOCCOC(=O)CCCCCCCCC(=O)OCCOCC","-","-","-","Bis(2-ethoxyethyl) sebacate","-1.0","?C","272.0","K","","","","","","-","","-","","-","","-"
"CCCCCCCOC1=CC=C(C=C1)N=[N+]([O-])C1=CC=C(OCCCCCCC)C=C1","-","-","-","4,4'-Bis(heptyloxy)azoxybenzene","73.0 - 122.0","?C","370.5","K","","","","","","-","","-","","-","","-"
"ClC1=CC(Cl)=C(OC(=O)C(=O)OC2=C(Cl)C=C(Cl)C=C2Cl)C(Cl)=C1","-","-","-","Bis(2,4,6-trichlorophenyl)oxalate","188.0 - 192.0","?C","463.0","K","","","","","","-","","-","","-","","-"
"NC(=O)NNC(N)=O","-","-","-","Biurea","247.0 - 250.0","?C","521.5","K","","","","","","-","","-","","-","","-"
"BrCN1C(=O)C2=C(C=CC=C2)C1=O","-","-","-","N-(Bromomethyl)phthalimide","149.0 - 154.0","?C","424.5","K","","","","","","-","","-","","-","","-"
"OC1=C(CBr)C=C(C=C1)[N+]([O-])=O","-","-","-","alpha-Bromo-4-nitro-o-cresol","145.0 - 149.0","?C","420.0","K","","","","","","-","","-","","-","","-"
"BrC(C(=O)C1=CC=CC=C1)C1=CC=CC=C1","-","-","-","2-Bromo-2-phenylacetophenone","53.0 - 58.0","?C","328.5","K","","","","","","-","","-","","-","","-"
"CCCCNC(=O)NCC(O)=O","-","-","-","5-Butylhydantoic acid","140.0","?C","413.0","K","","","","","","-","","-","","-","","-"
"CC(=O)OC1=CC=C(OC(C)=O)C(=C1)C(C)(C)C","-","-","-","tert-Butylhydroquinone diacetate","64.5 - 65.5","?C","338.0","K","","","","","","-","","-","","-","","-"
"CC(C)(C)NC(N)=O","-","-","-","tert-Butylurea","178.0 - 182.0","?C","453.0","K","","","","","","-","","-","","-","","-"
"CCN(CC)C1=CC2=C(C=C1)C=C(C(=O)C1=CC3=C(OC1=O)C=C(C=C3)N(CC)CC)C(=O)O2","-","-","-","3,3'-Carbonylbis(7-diethylaminocoumarin)","214.0","?C","487.0","K","","","","","","-","","-","","-","","-"
"COC1=CC2=C(C=C1)C=C(C(=O)C1=CC3=C(OC1=O)C=C(OC)C=C3)C(=O)O2","-","-","-","3,3'-Carbonylbis(7-methoxycoumarin)","271.0","?C","544.0","K","","","","","","-","","-","","-","","-"
"OS(=O)(=O)C1=CC=C(Cl)C=C1","-","-","-","4-CHLOROBENZENESULFONIC ACID","102.0","?C","375.0","K","","","","","","-","","-","","-","","-"
"ClC1=CC=CC2=C1C(C#CC1=CC=CC=C1)=C1C=CC=CC1=C2C#CC1=CC=CC=C1","-","-","-","1-Chloro-9,10-bis(phenylethynyl)anthracene","199.0 - 204.0","?C","474.5","K","","","","","","-","","-","","-","","-"
"CCCCCCCCCCCCCCOC1=CC=CC=C1NC(=O)C1=C(O)C2=C(C=CC=C2)C(OC2=CC=C(C=C2CN(C(C)C)C(Cl)=O)[N+]([O-])=O)=C1","-","-","-","4(2(N-Chlorocarbonyl-N-isopropyl)aminomethyl-4-nitro)phenoxy-1-hydroxy-N(2-tetradecyloxyphenyl)2-naphthalene carboxamide","109.0 - 116.0","?C","385.5","K","","","","","","-","","-","","-","","-"
"CC1=CC(=O)OC2=C1C=CC(OCC(Cl)=O)=C2","-","-","-","7-[(Chlorocarbonyl)methoxy]-4-methylcoumarin","129.0","?C","402.0","K","","","","","","-","","-","","-","","-"
"CC1=CC=C(C=C1)S(=O)(=O)NC1=CC=C(Cl)C=C1","-","-","-","N-(4-Chlorophenyl)-p-toluenesulfonamide","120.0","?C","393.0","K","","","","","","-","","-","","-","","-"
"OC(=O)C1=CC=C(C=C1)S(Cl)(=O)=O","-","-","-","4-(Chlorosulfonyl)benzoic acid","230.0","?C","503.0","K","","","","","","-","","-","","-","","-"
"ClC(=O)C1=CC(=CC=C1)S(Cl)(=O)=O","-","-","-","3-(Chlorosulfonyl)benzoyl chloride","18.0 - 20.0","?C","292.0","K","","","","","","-","","-","","-","","-"
"CCC(=O)OC1CCC2(C)C3CCC4(C)C(CCC4C3CC=C2C1)C(C)CCCC(C)C","-","-","-","Cholesteryl propionate","97.0 - 100.0","?C","371.5","K","","","","","","-","","-","","-","","-"
"CCNC1=CC2=C(C=C1C)C(C)=CC(=O)O2","-","-","-","Coumarin 2","168.0 - 170.0","?C","442.0","K","","","","","","-","","-","","-","","-"
"CCN(CC)C1=CC2=C(C=C1)C=C(C1=NC3=C(S1)C=CC=C3)C(=O)O2","-","-","-","Coumarin 6","205.0 - 208.0","?C","479.5","K","","","","","","-","","-","","-","","-"
"O=C1OC2=C(C=C3CCCN4CCCC2=C34)C2=C1CCC2","-","-","-","Coumarin 106","149.0","?C","422.0","K","","","","","","-","","-","","-","","-"
"CN(C)C1=CC2=C(C=C1)C(=CC(=O)O2)C(F)(F)F","-","-","-","Coumarin 152","147.0 - 149.0","?C","421.0","K","","","","","","-","","-","","-","","-"
"FC(F)(F)C1=CC(=O)OC2=C1C=C1CCCN3CCCC2=C13","-","-","-","Coumarin 153","167.0 - 168.0","?C","440.5","K","","","","","","-","","-","","-","","-"
"CCNC1=CC2=C(C=C1C)C(=CC(=O)O2)C(F)(F)F","-","-","-","Coumarin 307","184.0","?C","457.0","K","","","","","","-","","-","","-","","-"
"CCOC(=O)C1=CC2=C(OC1=O)C1=C3N(CCCC3=C2)CCC1","-","-","-","Coumarin 314","140.0 - 144.0","?C","415.0","K","","","","","","-","","-","","-","","-"
"CC(=O)C1=CC2=C(OC1=O)C1=C3N(CCCC3=C2)CCC1","-","-","-","Coumarin 334","181.0 - 184.0","?C","455.5","K","","","","","","-","","-","","-","","-"
"O=C1OC2=C(C=C3CCCN4CCCC2=C34)C=C1C#N","-","-","-","Coumarin 337","250.0","?C","523.0","K","","","","","","-","","-","","-","","-"
"CC(C)(C)OC(=O)C1=CC2=C(OC1=O)C1=C3N(CCCC3=C2)CCC1","-","-","-","COUMARIN 338","171.0","?C","444.0","K","","","","","","-","","-","","-","","-"
"OC(=O)C1=CC2=CC3=C4N(CCC3)CCCC4=C2OC1=O","-","-","-","Coumarin 343","240.0","?C","513.0","K","","","","","","-","","-","","-","","-"
"CCNC1=CC2=C(C=C1)C(=CC(=O)O2)C(F)(F)F","-","-","-","coumarin 500","158.0 - 159.0","?C","431.5","K","","","","","","-","","-","","-","","-"
"O=C(CC#N)NC1=CC=CC=C1","-","-","-","2-Cyanoacetanilide","198.0 - 202.0","?C","473.0","K","","","","","","-","","-","","-","","-"
"OCC1CCC(CO)CC1","-","-","-","trans-1,4-Cyclohexanedimethanol","61.0 - 66.0","?C","336.5","K","","","","","","-","","-","","-","","-"
"NC1=CC(=C(C=CC2=C(C=C(N)C=C2)S(O)(=O)=O)C=C1)S(O)(=O)=O","-","-","-","4,4'-Diaminostilbene-2,2'-disulfonic acid","300.0","?C","573.0","K","","","","","","-","","-","","-","","-"
"ClC1=CC=CC2=C(C#CC3=CC=CC=C3)C3=CC=CC(Cl)=C3C(C#CC3=CC=CC=C3)=C12","-","-","-","1,8-Dichloro-9,10-bis(phenylethynyl)anthracene","167.0 - 170.0","?C","441.5","K","","","","","","-","","-","","-","","-"
"ClC1=CC2=C(C=C1)C1(OC(=O)C3=C1C=CC=C3)C1=CC=C(Cl)C=C1O2","-","-","-","3',6'-Dichlorofluoran","253.0 - 255.0","?C","527.0","K","","","","","","-","","-","","-","","-"
"CN(C)C1=CC=C(C=CC2=CC(C=C(C)O2)=C(C#N)C#N)C=C1","-","-","-","4-(Dicyanomethylene)-2-methyl-6-(p-dimethylaminostyryl)-4H-pyran","212.0","?C","485.0","K","","","","","","-","","-","","-","","-"
"CCCCCCCCCCN(CCCCCCCCCC)CCCCCCCCCC","-","-","-","N,N-Didecyl-1-decanamine","-5.0 - -3.0","?C","269.0","K","","","","","","-","","-","","-","","-"
"CCCCCCCCCCCCOC(=O)C1=C(C=CC=C1)C(=O)OCCCCCCCCCCCC","-","-","-","Didodecyl phthalate","21.0 - 23.0","?C","295.0","K","","","","","","-","","-","","-","","-"
"CCN(CC)C1=CC=C(C=NN(C2=CC=CC=C2)C2=CC=CC=C2)C=C1","-","-","-","4-(Diethylamino)benzaldehyde-1,1-diphenyl-hydrazone","92.0 - 95.0","?C","366.5","K","","","","","","-","","-","","-","","-"
"CCN(CC)C(N)=O","-","-","-","1,1-Diethylurea","66.0 - 71.0","?C","341.5","K","","","","","","-","","-","","-","","-"
"CC1=NN(C(=O)C1)C1=CC=C(C=C1)[N+]([O-])=O","-","-","-","2,4-Dihydro-5-methyl-2-(4-nitrophenyl)-3H-pyrazol-3-one","220.0 - 225.0","?C","495.5","K","","","","","","-","","-","","-","","-"
"CCOC(=O)CC1=CSC(=S)N1","-","-","-","2,3-Dihydro-2-thioxo-4-thiazoleacetic acid ethyl ester","136.0 - 144.0","?C","413.0","K","","","","","","-","","-","","-","","-"
"OC1=CC=C(O)C2=C1C1CCC2C1","-","-","-","3,6-Dihydroxybenzonorbornane","172.0 - 178.0","?C","448.0","K","","","","","","-","","-","","-","","-"
"COC1=CC=C(OC)C2=CC3=C(C=CC=C3)C=C12","-","-","-","1,4-Dimethoxyanthracene","134.5 - 136.5","?C","408.5","K","","","","","","-","","-","","-","","-"
"COC1=CC2=C(C=C(C(=O)C3=CC=CC4=C3C=CC=C4)C(=O)O2)C(OC)=C1","-","-","-","5,7-Dimethoxy-3-(1-naphthoyl)coumarin","210.0","?C","483.0","K","","","","","","-","","-","","-","","-"
"CC1=CC(=O)C(C)=CC1=O","-","-","-","2,5-Dimethyl-p-benzoquinone","123.0 - 126.0","?C","397.5","K","","","","","","-","","-","","-","","-"
"CC1=NN(C(=O)C1C1C(C)=NN(C1=O)C1=CC=CC=C1)C1=CC=CC=C1","-","-","-","3,3'-Dimethyl-1,1'-diphenyl[4,4'-bi-2-pyrazoline]-5,5'-dione","355.0","?C","628.0","K","","","","","","-","","-","","-","","-"
"COC(=O)C1=C(N=CN1)C(=O)OC","-","-","-","Dimethyl 4,5-imidazoledicarboxylate","197.0 - 201.0","?C","472.0","K","","","","","","-","","-","","-","","-"
"COC(=O)C1=C(C(=O)OC)C2=C(N1)C=CC=C2","-","-","-","Dimethyl indole-2,3-dicarboxylate","112.0 - 115.0","?C","386.5","K","","","","","","-","","-","","-","","-"
"CC1=NN(C(C)=C1C=O)C1=CC=CC=C1","-","-","-","3,5-Dimethyl-1-phenylpyrazole-4-carboxaldehyde","125.0 - 128.0","?C","399.5","K","","","","","","-","","-","","-","","-"
"CC(=O)OC1=CC=C(C=C1[N+]([O-])=O)[N+]([O-])=O","-","-","-","2,4-DINITROPHENYL ACETATE","69.0 - 75.0","?C","345.0","K","","","","","","-","","-","","-","","-"
"O=C(CCCC(=O)C1=CC=CC=C1)C1=CC=CC=C1","-","-","-","1,5-Diphenyl-1,5-pentanedione","64.0 - 67.0","?C","338.5","K","","","","","","-","","-","","-","","-"
"CCCOC1=CC(OCCC)=CC(O)=C1","-","-","-","3,5-Dipropoxyphenol","43.0 - 48.0","?C","318.5","K","","","","","","-","","-","","-","","-"
"CCCCCCCCCCCCOS(=O)(=O)C1=CC=C(C)C=C1","-","-","-","Dodecyl p-toluenesulfonate","28.5 - 31.5","?C","303.0","K","","","","","","-","","-","","-","","-"
"[O-][N+](=O)C1=CC=C(OCC2CO2)C=C1","-","-","-","1,2-epoxy-3-(4-nitrophenoxy)propane","54.0 - 55.0","?C","327.5","K","","","","","","-","","-","","-","","-"
"CCOC1=NN(C(=O)C1)C1=CC=C(C=C1)[N+]([O-])=O","-","-","-","3-Ethoxy-1-(4-nitrophenyl)-2-pyrazolin-5-one","142.0","?C","415.0","K","","","","","","-","","-","","-","","-"
"OC(=O)CN(CC(O)=O)CC1=CC2=C(OC3=CC(O)=C(CN(CC(O)=O)CC(O)=O)C=C3C22OC(=O)C3=C2C=CC=C3)C=C1O","-","-","-","Fluorexon","200.0","?C","473.0","K","","","","","","-","","-","","-","","-"
"OC(=O)COC1=CC=C(C=O)C=C1","-","-","-","4-Formylphenoxyacetic acid","198.0","?C","471.0","K","","","","","","-","","-","","-","","-"
"OC(=O)C1=CC(O)=C(O)C(O)=C1","-","-","-","gallic acid","253.0","?C","526.0","K","","","","","","-","","-","","-","","-"
"OC1=CC=C2C3=C4C=C(O)C(=O)C=C4CC3(O)COC2=C1O","-","-","-","hematein","180.0","?C","453.0","K","","","","","","-","","-","","-","","-"
"CCCCCCC1=CC=C(O)C=C1","-","-","-","4-HEXYLPHENOL","32.0","?C","305.0","K","","","","","","-","","-","","-","","-"
"ONS(=O)(=O)C1=CC=CC=C1","-","-","-","N-Hydroxybenzenesulfonamide","120.0 - 125.0","?C","395.5","K","","","","","","-","","-","","-","","-"
"CC1=CC=C(C=C1)S(=O)(=O)OCC(O)C=C","-","-","-","(S)-2-Hydroxy-3-buten-1-yl p-tosylate","57.0 - 63.0","?C","333.0","K","","","","","","-","","-","","-","","-"