"SMILES","CASRN","EXTERNALID","N","NAME","Melting Point","UNIT {Melting Point}","Melting Point {measured, converted}","UNIT {Melting Point}","Dataset","comment (property)","comment (chemical)","measurement method","Pressure","UNIT {Pressure}","Som set numeric condition","UNIT {Som set numeric condition}","Resp set numeric condition","UNIT {Resp set numeric condition}","Quality code","UNIT {Quality code}"
"COC(=O)C=C(CCl)OC","-","-","-","Methyl 4-chloro-3-methoxy-2-(E)-butenoate","25.0","?C","298.0","K","","","","","","-","","-","","-","","-"
"ClCC(=C)CCl","-","-","-","3-CHLORO-2-CHLOROMETHYL-1-PROPENE","14.0","?C","287.0","K","","","","","","-","","-","","-","","-"
"FC1=CC=C(OCC2CO2)C=C1","-","-","-","[(4-Fluorophenoxy)methyl]oxirane","19.5","?C","292.5","K","","","","","","-","","-","","-","","-"
"OCC(F)(F)C(F)(F)C(F)(F)C(F)(F)C(F)(F)C(F)(F)C(F)(F)F","-","-","-","1H,1H-Perfluoro-1-octanol","43.0 - 47.0","?C","318.0","K","","","","","","-","","-","","-","","-"
"COC1=CC=CC(CO)=C1O","-","-","-","2-Hydroxy-3-methoxybenzyl alcohol","59.0 - 63.0","?C","334.0","K","","","","","","-","","-","","-","","-"
"CCC(CO)(CO)COCC=C","-","-","-","Trimethylolpropane mono allyl ether","-10.0","?C","263.0","K","","","","","","-","","-","","-","","-"
"OCCCC(Cl)(Cl)CO","-","-","-","2,2-Dichloro-1,5-pentanediol","40.0 - 42.0","?C","314.0","K","","","","","","-","","-","","-","","-"
"OC1OCCCC1(Cl)Cl","-","-","-","3,3-Dichloro-2-hydroxytetrahydropyran","87.0 - 90.0","?C","361.5","K","","","","","","-","","-","","-","","-"
"CCC=CC(O)=O","-","-","-","trans-2-Pentenoic acid","9.0","?C","282.0","K","","","","","","-","","-","","-","","-"
"CC1=C(S)C=C(C=C1)C(C)(C)C","-","-","-","2-Methyl-5-tert-butylthiophenol","-10.0","?C","263.0","K","","","","","","-","","-","","-","","-"
"C[Si](C)(C)P([Si](C)(C)C)[Si](C)(C)C","-","-","-","[Tris(trimethylsilyl)]phosphine","24.0","?C","297.0","K","","","","","","-","","-","","-","","-"
"CC(=C)C(=O)OC1CC2CCC1(C)C2(C)C","-","-","-","ISOBORNYL METHACRYLATE","-60.0","?C","213.0","K","","","","","","-","","-","","-","","-"
"COC(CC(C)=O)OC","-","-","-","Acetylacetaldehyde dimethyl acetal","-82.0","?C","191.0","K","","","","","","-","","-","","-","","-"
"CN(N)C(=O)C1=CC=CC=C1N","-","-","-","1-(2-Aminobenzoyl)-1-methylhydrazine","69.0 - 71.0","?C","343.0","K","","","","","","-","","-","","-","","-"
"CC1=NC2=C(O1)C=CC(Cl)=C2","-","-","-","5-Chloro-2-methylbenzoxazole","54.0 - 57.0","?C","328.5","K","","","","","","-","","-","","-","","-"
"FC1=C(F)C(Cl)=C(F)C(F)=C1S","-","-","-","4-Chloro-tetrafluorothiophenol","47.0 - 52.0","?C","322.5","K","","","","","","-","","-","","-","","-"
"FC1=C(Cl)C=CC(Cl)=C1","-","-","-","1,4-Dichloro-2-fluorobenzene","4.0","?C","277.0","K","","","","","","-","","-","","-","","-"
"CC1=C(O)C=CC(F)=C1","-","-","-","4-Fluoro-2-methylphenol","37.0 - 38.0","?C","310.5","K","","","","","","-","","-","","-","","-"
"OC(=O)C1CCC(=O)O1","-","-","-","(R)-(-)-5-Oxo-2-tetrahydrofurancarboxylic acid","69.0 - 72.0","?C","343.5","K","","","","","","-","","-","","-","","-"
"CC(Cl)C(Cl)=O","-","-","-","2-Chloropropionyl chloride","-71.0","?C","202.0","K","","","","","","-","","-","","-","","-"
"COC1=CC=C(C=C1)C1=NNC=C1","-","-","-","3-(4-Methoxyphenyl)pyrazole","127.0 - 130.0","?C","401.5","K","","","","","","-","","-","","-","","-"
"N1C=CC(=N1)C1=CC=CS1","-","-","-","3-(2-Thienyl)pyrazole","97.0 - 99.0","?C","371.0","K","","","","","","-","","-","","-","","-"
"CC1=CC=C(C=C1)C(C)(C)C","-","-","-","4-tert-Butyltoluene","-54.0","?C","219.0","K","","","","","","-","","-","","-","","-"
"ClC1=NC(Br)=NS1","-","-","-","3-Bromo-5-chloro-1,2,4-thiadiazole","24.0 - 25.0","?C","297.5","K","","","","","","-","","-","","-","","-"
"CCCCCCCCCC(=O)C1=CC=CC=C1","-","-","-","n-Decanophenone","34.0 - 38.0","?C","309.0","K","","","","","","-","","-","","-","","-"
"FC(F)(F)C1=CC(Cl)=CC(Cl)=C1","-","-","-","3,5-Dichlorobenzotrifluoride","-13.0 - -12.0","?C","260.5","K","","","","","","-","","-","","-","","-"
"CC(C)(C)P(Cl)Cl","-","-","-","tert-Butyldichlorophosphine","49.0","?C","322.0","K","","","","","","-","","-","","-","","-"
"CC(=O)C1=CC(Cl)=CC=C1O","-","-","-","5'-Chloro-2'-hydroxyacetophenone","53.0 - 56.0","?C","327.5","K","","","","","","-","","-","","-","","-"
"CCOC(=O)C1CCC(=O)N1","-","-","-","Ethyl (R)-(-)-2-pyrrolidone-5-carboxylate","49.0 - 53.0","?C","324.0","K","","","","","","-","","-","","-","","-"
"CSC1=C(Br)C=CC=C1","-","-","-","2-Bromothioanisole","-24.0","?C","249.0","K","","","","","","-","","-","","-","","-"
"COC1=CC=C(SC)C=C1","-","-","-","1-Methoxy-4-(methylthio)benzene","22.0 - 23.0","?C","295.5","K","","","","","","-","","-","","-","","-"
"C=CCCCCCCC1CO1","-","-","-","1,2-Epoxy-9-decene","25.0","?C","298.0","K","","","","","","-","","-","","-","","-"
"C[Si](C)(C1=CC=CC=C1)[Si](C)(C)C1=CC=CC=C1","-","-","-","Diphenyltetramethyldisilane","33.0 - 38.0","?C","308.5","K","","","","","","-","","-","","-","","-"
"CC(C)(C)C(=O)CBr","-","-","-","1-Bromo-3,3-dimethylbutan-2-one","-10.0","?C","263.0","K","","","","","","-","","-","","-","","-"
"FC(F)(F)C1=CC(=CC(Br)=C1)C(F)(F)F","-","-","-","3,5-Bis(trifluoromethyl)bromobenzene","-16.0","?C","257.0","K","","","","","","-","","-","","-","","-"
"FC1=CC(Cl)=C(Cl)C=C1","-","-","-","1,2-Dichloro-4-fluorobenzene","-1.0","?C","272.0","K","","","","","","-","","-","","-","","-"
"CC(C)(C)C(=O)CCl","-","-","-","1-Chloropinacolone","-1.0","?C","272.0","K","","","","","","-","","-","","-","","-"
"ClC1=CC=C(OC2=CC=CC=C2)C=C1","-","-","-","4-Chlorodiphenyl ether","-8.0","?C","265.0","K","","","","","","-","","-","","-","","-"
"CS(=O)(=O)CCO","-","-","-","2-(Methylsulfonyl)ethanol","31.0 - 33.0","?C","305.0","K","","","","","","-","","-","","-","","-"
"C#CCCCC#C","-","-","-","1,6-Heptadiyne","-85.0","?C","188.0","K","","","","","","-","","-","","-","","-"
"CC(=CC(O)=O)C(F)(F)F","-","-","-","4,4,4-Trifluoro-3-methyl-2-butenoic acid","28.0 - 30.0","?C","302.0","K","","","","","","-","","-","","-","","-"
"OCC(F)(F)C(F)(F)C(F)(F)C(F)(F)C(F)(F)C(F)(F)C(F)(F)C(F)(F)C(F)(F)F","-","-","-","2,2,3,3,4,4,5,5,6,6,7,7,8,8,9,9,10,10,10-Nonadecafluoro-1-decanol","87.0 - 91.0","?C","362.0","K","","","","","","-","","-","","-","","-"
"O=C(OC1=CC=CC=C1)C1=CC(=CC=C1)C(=O)OC1=CC=CC=C1","-","-","-","Diphenyl isophthalate","136.0 - 139.0","?C","410.5","K","","","","","","-","","-","","-","","-"
"FC1=CC(F)=C(Cl)C=C1","-","-","-","1-Chloro-2,4-difluorobenzene","-26.0","?C","247.0","K","","","","","","-","","-","","-","","-"
"[O-][N+](=O)C1=CC(=CC=C1C#N)C(F)(F)F","-","-","-","2-Nitro-4-(trifluoromethyl)benzonitrile","44.0 - 44.0","?C","317.0","K","","","","","","-","","-","","-","","-"
"FC(F)(Br)CBr","-","-","-","1,2-Dibromo-1,1-difluoroethane","-61.0","?C","212.0","K","","","","","","-","","-","","-","","-"
"[O-][N+](=O)C1=C(C=C(F)C=C1)C(F)(F)F","-","-","-","5-Fluoro-2-nitrobenzotrifluoride","23.0","?C","296.0","K","","","","","","-","","-","","-","","-"
"FC(F)(F)C(F)(F)C(F)(F)C(F)(F)C(F)(F)C(F)(F)C(F)(F)C(F)(F)C(F)(F)C(F)(F)C(F)(F)C(F)(F)I","-","-","-","Perfluorododecyl iodide","99.0 - 101.0","?C","373.0","K","","","","","","-","","-","","-","","-"
"FC(F)(F)C(F)(F)C(F)(F)C(F)(F)C(F)(F)C(F)(F)C(F)(F)C(F)(F)S(F)(=O)=O","-","-","-","Perfluoro-1-octanesulfonyl fluoride","-1.0","?C","272.0","K","","","","","","-","","-","","-","","-"
"FC(F)(F)C(F)(F)C(F)(F)C(F)(F)C(F)(F)C(F)(F)CCI","-","-","-","1,1,1,2,2,3,3,4,4,5,5,6,6-Tridecafluoro-8-iodooctane","21.0","?C","294.0","K","","","","","","-","","-","","-","","-"
"FC(F)(F)C1=CC=CC=C1C(Cl)=O","-","-","-","2-(Trifluoromethyl)benzoyl chloride","-22.0","?C","251.0","K","","","","","","-","","-","","-","","-"
"FC(F)(F)C1=CC=CC=C1CBr","-","-","-","alpha'-Bromo-alpha,alpha,alpha-trifluoro-o-xylene","34.0 - 35.0","?C","307.5","K","","","","","","-","","-","","-","","-"
"CCCCO[Si](OCCCC)(OCCCC)OCCCC","-","-","-","Tetrabutyl orthosilicate","-80.0","?C","193.0","K","","","","","","-","","-","","-","","-"
"C[Si](N[Si](C)(C1=CC=CC=C1)C1=CC=CC=C1)(C1=CC=CC=C1)C1=CC=CC=C1","-","-","-","1,3-Dimethyl-1,1,3,3-tetraphenyldisilazane","91.0","?C","364.0","K","","","","","","-","","-","","-","","-"
"CC(=O)C1=CC=CC(=C1)N=C=O","-","-","-","3-Acetylphenyl isocyanate","33.0 - 34.0","?C","306.5","K","","","","","","-","","-","","-","","-"
"CNC(=S)C#N","-","-","-","1-Cyano-N-methylthioformamide","37.0 - 46.0","?C","314.5","K","","","","","","-","","-","","-","","-"
"ClCC1=CC=C(C=C1)C(Cl)=O","-","-","-","4-(Chloromethyl)benzoyl chloride","29.0 - 33.0","?C","304.0","K","","","","","","-","","-","","-","","-"
"CC(C)N(C(C)C)C(Cl)=O","-","-","-","Diisopropylcarbamoyl chloride","55.0 - 60.0","?C","330.5","K","","","","","","-","","-","","-","","-"
"O=C(N=C=S)C1=CC=CC=C1","-","-","-","Benzoyl isothiocyanate","128.0 - 131.0","?C","402.5","K","","","","","","-","","-","","-","","-"
"NCCN(CCN)CCN","-","-","-","Tris(2-aminoethyl)amine","-16.0","?C","257.0","K","","","","","","-","","-","","-","","-"
"ClC1=C(C=CC(Br)=C1)N=C=O","-","-","-","4-Bromo-2-chlorophenyl isocyanate","71.0 - 75.0","?C","346.0","K","","","","","","-","","-","","-","","-"
"CN(C)C1=CC=C(C=C1)N=C=O","-","-","-","4-(Dimethylamino)phenyl isocyanate","38.0","?C","311.0","K","","","","","","-","","-","","-","","-"
"FC1=CC=C(C=C1)S(=O)(=O)N=C=O","-","-","-","4-Fluorobenzenesulfonyl isocyanate","32.0 - 39.0","?C","308.5","K","","","","","","-","","-","","-","","-"
"[O-][N+](=O)C1=C(C=CC(F)=C1)N=C=O","-","-","-","4-Fluoro-2-nitrophenyl isocyanate","50.0 - 55.0","?C","325.5","K","","","","","","-","","-","","-","","-"
"O=C=NC1=CC=C(OC2=CC=C(C=C2)N=C=O)C=C1","-","-","-","Oxybis(4-phenyl isocyanate)","62.0 - 66.0","?C","337.0","K","","","","","","-","","-","","-","","-"
"O=C1CCCCCC1C1=CC=CC=C1","-","-","-","()-2-Phenylcycloheptanone","21.0 - 23.0","?C","295.0","K","","","","","","-","","-","","-","","-"
"FC(F)(F)C1=CC(Cl)=C(Cl)C(Cl)=C1","-","-","-","3,4,5-Trichlorobenzotrifluoride","-10.0 - -8.0","?C","264.0","K","","","","","","-","","-","","-","","-"
"CC(O)C1=C(C=CC=C1)C(F)(F)F","-","-","-","alpha-Methyl-2-(trifluoromethyl)benzyl alcohol","38.0 - 40.0","?C","312.0","K","","","","","","-","","-","","-","","-"
"NCCNCCNCCNCCNCCN","-","-","-","Pentaethylenehexamine","-35.0","?C","238.0","K","","","","","","-","","-","","-","","-"
"OCC(F)(F)C(F)(F)CO","-","-","-","2,2,3,3-Tetrafluoro-1,4-butanediol","85.0 - 87.0","?C","359.0","K","","","","","","-","","-","","-","","-"
"OCC(F)(F)C(F)(F)C(F)(F)C(F)(F)C(F)(F)C(F)(F)C(F)(F)C(F)(F)CO","-","-","-","2,2,3,3,4,4,5,5,6,6,7,7,8,8,9,9-Hexadecafluoro-1,10-decanediol","132.0 - 137.0","?C","407.5","K","","","","","","-","","-","","-","","-"
"C1=CC=C(C=C1)P(P(C1=CC=CC=C1)C1=CC=CC=C1)C1=CC=CC=C1","-","-","-","Tetraphenylbiphosphine","120.0 - 122.0","?C","394.0","K","","","","","","-","","-","","-","","-"
"CC(C)C1COC2(C)C=CC(=O)N12","-","-","-","(3S-cis)-(+)-2,3-Dihydro-3-isopropyl-7a-methylpyrrolo-[2,1-b]oxazol-5(7aH)-one","46.0 - 50.0","?C","321.0","K","","","","","","-","","-","","-","","-"
"CC(C)OC(=O)N=NC(=O)OC(C)C","-","-","-","Diisopropyl azodicarboxylate","3.0 - 5.0","?C","277.0","K","","","","","","-","","-","","-","","-"
"CC1=NC2=C(S1)C=C(C=C2)C1=CC=CC=C1","-","-","-","2-Methyl-6-phenylbenzothiazole","90.0 - 95.0","?C","365.5","K","","","","","","-","","-","","-","","-"
"O=C1CCCC2=C1C=CO2","-","-","-","6,7-Dihydro-4(5H)-benzofuranone","60.5 - 61.5","?C","334.0","K","","","","","","-","","-","","-","","-"
"COC=CC(=O)OC","-","-","-","Methyl 3-methoxyacrylate","3.0 - 4.0","?C","276.5","K","","","","","","-","","-","","-","","-"
"BrC1=CC=CC2=C1C=CN2","-","-","-","4-Bromoindole","17.0","?C","290.0","K","","","","","","-","","-","","-","","-"
"CC1=CP(=O)(CC1)C1=CC=CC=C1","-","-","-","4-methyl-1-phenyl-2,3-dihydro-1H-1lambda5-phosphol-1-one","58.0 - 62.0","?C","333.0","K","","","","","","-","","-","","-","","-"
"OCCOC(=O)C=C","-","-","-","2-HYDROXYETHYL ACRYLATE","-60.0","?C","213.0","K","","","","","","-","","-","","-","","-"
"ClC1=CC=C(C=C1)N1C=CC=C1","-","-","-","1-(4-Chlorophenyl)-1H-pyrrole","88.0 - 91.0","?C","362.5","K","","","","","","-","","-","","-","","-"
"CC1=CC(=O)CC(C)(C)C1=O","-","-","-","2,6,6-Trimethyl-2-cyclohexene-1,4-dione","26.0 - 28.0","?C","300.0","K","","","","","","-","","-","","-","","-"
"CC(=O)C1=CC=C(OC2=CC=CC=C2)C=C1","-","-","-","4'-Phenoxyacetophenone","52.0 - 54.0","?C","326.0","K","","","","","","-","","-","","-","","-"
"CC1=C(C)C(C)=C(C=O)C(C)=C1C","-","-","-","Pentamethylbenzaldehyde","146.0 - 148.0","?C","420.0","K","","","","","","-","","-","","-","","-"
"CCO[Si](CC)(OCC)OCC","-","-","-","Ethyltriethoxysilane","-78.0","?C","195.0","K","","","","","","-","","-","","-","","-"
"C[Si](C)(C)O[Si](O[Si](C)(C)C)(O[Si](C)(C)C)O[Si](C)(C)C","-","-","-","Tetrakis(trimethylsilyloxy)silane","-60.0","?C","213.0","K","","","","","","-","","-","","-","","-"
"COC(=O)CC(=O)OC(C)(C)C","-","-","-","tert.-Butyl methyl malonate","-10.0","?C","263.0","K","","","","","","-","","-","","-","","-"
"CC(C)OCCO","-","-","-","2-Isopropoxyethanol","-60.0","?C","213.0","K","","","","","","-","","-","","-","","-"
"COC1=CC=C(C=CC(=O)C2=CC=C(F)C=C2)C(OC)=C1","-","-","-","2,4-Dimethoxy-4'-fluorochalcone","117.0 - 122.0","?C","392.5","K","","","","","","-","","-","","-","","-"
"COC1=CC=C(C=CC(=O)C2=CC=C(F)C=C2)C=C1OC","-","-","-","3,4-Dimethoxy-4'-fluorochalcone","88.0 - 93.0","?C","363.5","K","","","","","","-","","-","","-","","-"
"OCCCCCC(O)=O","-","-","-","6-HYDROXYCAPROIC ACID","38.0 - 40.0","?C","312.0","K","","","","","","-","","-","","-","","-"
"NC1CCC2=CC=CC=C12","-","-","-","(R)-(-)-1-Aminoindan","15.0","?C","288.0","K","","","","","","-","","-","","-","","-"
"CCCCC(CC)CCl","-","-","-","3-(CHLOROMETHYL)HEPTANE","-70.0","?C","203.0","K","","","","","","-","","-","","-","","-"
"C(C=CC1=CC=CC=C1)N1CCNCC1","-","-","-","1-Cinnamylpiperazine","39.0 - 44.0","?C","314.5","K","","","","","","-","","-","","-","","-"
"CC1=CC2=CC=CC=C2C(C)=C1","-","-","-","1,3-dimethylnaphthalene","-5.0","?C","268.0","K","","","","","","-","","-","","-","","-"
"CCSC(Cl)=O","-","-","-","Ethyl chlorothioformate","-60.0","?C","213.0","K","","","","","","-","","-","","-","","-"
"ClP(Cl)(=O)C1CCCCC1","-","-","-","Cyclohexylphosphonic dichloride","40.0 - 43.0","?C","314.5","K","","","","","","-","","-","","-","","-"
"CSCCC(N)CO","-","-","-","D(+)-Methioninol","31.0 - 36.0","?C","306.5","K","","","","","","-","","-","","-","","-"
"CC(O)C(N)CO","-","-","-","D(-)-Threoninol","54.0 - 57.0","?C","328.5","K","","","","","","-","","-","","-","","-"
"OC(=O)C1=CC=CC=C1CCC1=CC=CC=C1","-","-","-","2-Bibenzylcarboxylic acid","127.0 - 132.0","?C","402.5","K","","","","","","-","","-","","-","","-"
"CC1(C)OC2OC(CO)C(O)C2O1","-","-","-","1,2-O-Isopropylidene-alpha-D-xylofuranose","68.0 - 70.0","?C","342.0","K","","","","","","-","","-","","-","","-"
"CC(C)(C)OOC(C)(C)C","-","-","-","Di-tert-butyl peroxide","-30.0","?C","243.0","K","","","","","","-","","-","","-","","-"
"CC(C)(C)C(N)CO","-","-","-","(S)-tert-Leucinol","30.0 - 34.0","?C","305.0","K","","","","","","-","","-","","-","","-"
"CCC(=O)OC1=C2C=CC=CC2=CC=C1","-","-","-","1-Naphthyl propionate","34.0 - 35.0","?C","307.5","K","","","","","","-","","-","","-","","-"
"CC(C)(C)C1=CC=C(S)C=C1","-","-","-","4-tert-Butylthiophenol","-11.0","?C","262.0","K","","","","","","-","","-","","-","","-"
"NCCCN1C=CN=C1","-","-","-","N-(3-Aminopropyl)imidazole","-68.0","?C","205.0","K","","","","","","-","","-","","-","","-"
"CCC1=CC(OC)=C(O)C=C1","-","-","-","4-Ethyl-2-methoxyphenol","15.0","?C","288.0","K","","","","","","-","","-","","-","","-"
"CC1=CC(O)=C(C)C(O)=C1","-","-","-","2,5-Dimethylresorcinol","161.0 - 164.0","?C","435.5","K","","","","","","-","","-","","-","","-"
"SC1=C(Cl)C(Cl)=CC=C1","-","-","-","2,3-Dichlorobenzenethiol","57.0 - 61.0","?C","332.0","K","","","","","","-","","-","","-","","-"
"CCCC1=CC=C(C=C1)C1=CC=CC=C1","-","-","-","4-n-Propylbiphenyl","15.0 - 17.0","?C","289.0","K","","","","","","-","","-","","-","","-"
"N#CC1CCCC1","-","-","-","Cyclopentanecarbonitrile","-76.0","?C","197.0","K","","","","","","-","","-","","-","","-"
"COC1=CC=C(CCO)C=C1","-","-","-","4-Methoxyphenethyl alcohol","28.0 - 30.0","?C","302.0","K","","","","","","-","","-","","-","","-"
"CC1CNCCN1","-","-","-","(R)-(-)-2-Methylpiperazine","86.0 - 91.0","?C","361.5","K","","","","","","-","","-","","-","","-"
"ClC1=CC=CC(=C1Cl)S(Cl)(=O)=O","-","-","-","2,3-Dichlorobenzenesulfonyl chloride","61.0 - 63.0","?C","335.0","K","","","","","","-","","-","","-","","-"
"CCCCCOC(=O)C1=C(C=CC=C1)C(=O)OCCCCC","-","-","-","Dipentyl phthalate","-55.0","?C","218.0","K","","","","","","-","","-","","-","","-"
"FC(C(F)C(F)(F)C(F)(F)F)C(F)(F)F","-","-","-","2H,3H-Decafluoropentane","-80.0","?C","193.0","K","","","","","","-","","-","","-","","-"
"CC(C)(C)P(C(C)(C)C)C(C)(C)C","-","-","-","Tri-tert-butylphosphine","30.0","?C","303.0","K","","","","","","-","","-","","-","","-"
"CC1=CC(Cl)=NC=C1[N+]([O-])=O","-","-","-","2-Chloro-5-nitro-4-picoline","36.0 - 40.0","?C","311.0","K","","","","","","-","","-","","-","","-"
"ClC1=CC=CC(CBr)=C1Cl","-","-","-","2,3-Dichlorobenzyl bromide","29.0 - 32.0","?C","303.5","K","","","","","","-","","-","","-","","-"
"CC1=CC=CC=C1OP(=O)(OC1=CC=CC=C1C)OC1=CC=CC=C1C","-","-","-","Tri-o-tolyl phosphate","-25.0","?C","248.0","K","","","","","","-","","-","","-","","-"
"S=C=NCC1=CC=CC=C1","-","-","-","benzyl isothiocyanate","41.0","?C","314.0","K","","","","","","-","","-","","-","","-"
"C1CCC(CC1)C1CCCCC1","-","-","-","Bicyclohexyl","3.0 - 4.0","?C","276.5","K","","","","","","-","","-","","-","","-"
"CCCCC(CC)COC(=O)C1=CC=C(C=C1)C(=O)OCC(CC)CCCC","-","-","-","BIS(2-ETHYLHEXYL) TEREPHTHALATE","30.0 - 34.0","?C","305.0","K","","","","","","-","","-","","-","","-"
"CCCCCCCCCCOC(=O)C1=C(C=CC=C1)C(=O)OCCCCCCCCCC","-","-","-","DIDECYL PHTHALATE","4.0","?C","277.0","K","","","","","","-","","-","","-","","-"
"CCCCCCNCCCCCC","-","-","-","DIHEXYLAMINE","3.0","?C","276.0","K","","","","","","-","","-","","-","","-"
"NC1=NC2=C(N=CN2C2OC(CO)C(O)C2O)C(=O)N1","-","-","-","Guanosine","250.0","?C","523.0","K","","","","","","-","","-","","-","","-"
"C1N2CN3CN1CN(C2)C3","-","-","-","HEXAMETHYLENETETRAMINE","280.0","?C","553.0","K","","","","","","-","","-","","-","","-"
"OC(=O)CC1=CC=CC=C1C(O)=O","-","-","-","Homophthalic acid","178.0 - 182.0","?C","453.0","K","","","","","","-","","-","","-","","-"
"OC(=O)C=CC1=CC=C(O)C=C1","-","-","-","p-Hydroxycinnamic acid","214.0","?C","487.0","K","","","","","","-","","-","","-","","-"
"OCCN(CCN(CC(O)=O)CC(O)=O)CC(O)=O","-","-","-","N-(2-Hydroxyethyl)ethylenediaminetriacetic acid","212.0 - 214.0","?C","486.0","K","","","","","","-","","-","","-","","-"
"OC(=O)CC1=CNC2=C1C=C(O)C=C2","-","-","-","5-Hydroxyindole-3-acetic acid","162.0 - 165.0","?C","436.5","K","","","","","","-","","-","","-","","-"
"COC1=CC=CC2=C(O)C3=CC=CC=C3N=C12","-","-","-","9-Hydroxy-4-methoxyacridine","284.0 - 287.0","?C","558.5","K","","","","","","-","","-","","-","","-"
"CC1=CC(C(=O)C2=CC=CC=C2)=C(O)C=C1","-","-","-","2-Hydroxy-5-methylbenzophenone","83.0 - 85.0","?C","357.0","K","","","","","","-","","-","","-","","-"
"CC1CC2C3CC=C4CC(O)CCC4(C)C3CCC2(C)C1(O)C(C)=O","-","-","-","17alpha-Hydroxy-16beta-methylpregnenolone","224.0 - 230.0","?C","500.0","K","","","","","","-","","-","","-","","-"
"NNC(=O)C1=C(O)C=C2C=CC=CC2=C1","-","-","-","3-Hydroxy-2-naphthoic acid hydrazide","206.0 - 208.0","?C","480.0","K","","","","","","-","","-","","-","","-"
"OC(=O)CNC1=CC=C(O)C=C1","-","-","-","N-(4-Hydroxyphenyl)glycine","248.0","?C","521.0","K","","","","","","-","","-","","-","","-"
"OC1=CC=C(C=CC2=CC=CC=C2)C=C1","-","-","-","trans-4-Hydroxystilbene","185.0 - 189.0","?C","460.0","K","","","","","","-","","-","","-","","-"
"OC1=C2N=CNC2=NC=N1","-","-","-","hypoxanthine","250.0","?C","523.0","K","","","","","","-","","-","","-","","-"
"OC(=O)C(=O)CC1=CNC2=C1C=CC=C2","-","-","-","Indole-3-pyruvic acid","215.0","?C","488.0","K","","","","","","-","","-","","-","","-"
"OC(=O)C1=C(O)C=CC(I)=C1","-","-","-","5-Iodosalicylic acid","196.0 - 201.0","?C","471.5","K","","","","","","-","","-","","-","","-"