"SMILES","CASRN","EXTERNALID","N","NAME","Melting Point","UNIT {Melting Point}","Melting Point {measured, converted}","UNIT {Melting Point}","Dataset","comment (property)","comment (chemical)","measurement method","Pressure","UNIT {Pressure}","Som set numeric condition","UNIT {Som set numeric condition}","Resp set numeric condition","UNIT {Resp set numeric condition}","Quality code","UNIT {Quality code}"
"OC(=O)C1=CC=C(C=C1)N1CCOCC1","-","-","-","4-Morpholinobenzoic acid","278.0 - 281.0","?C","552.5","K","","","","","","-","","-","","-","","-"
"O=CC1=CC=C(C=C1)N1CCOCC1","-","-","-","4-Morpholinobenzaldehyde","66.0","?C","339.0","K","","","","","","-","","-","","-","","-"
"BrCC(=O)C1=CC=C(C=C1)N1CCOCC1","-","-","-","2-Bromo-1-(4-morpholinophenyl)-1-ethanone","112.0 - 115.0","?C","386.5","K","","","","","","-","","-","","-","","-"
"OCC1=CC=C(C=C1)N1CCOCC1","-","-","-","(4-Morpholin-4-yl-phenyl)-methanol","96.0 - 98.0","?C","370.0","K","","","","","","-","","-","","-","","-"
"NCC1=CC=C(C=C1)N1CCOCC1","-","-","-","4-Morpholinobenzylamine","50.0","?C","323.0","K","","","","","","-","","-","","-","","-"
"OC(=O)C1=CN=C(C=C1)N1CCOCC1","-","-","-","6-Morpholinonicotinic acid","256.0 - 257.0","?C","529.5","K","","","","","","-","","-","","-","","-"
"ClC(=O)C1=CN=C(C=C1)N1CCOCC1","-","-","-","6-Morpholinonicotinoyl chloride","158.0 - 159.0","?C","431.5","K","","","","","","-","","-","","-","","-"
"ClS(=O)(=O)C1=CN=C(C=C1)N1CCOCC1","-","-","-","6-Morpholin-4-yl-pyridine-3-sulfonyl chloride","118.0","?C","391.0","K","","","","","","-","","-","","-","","-"
"O=CC1=CC=C(N=C1)N1CCOCC1","-","-","-","6-Morpholinonicotinaldehyde","88.0 - 89.0","?C","361.5","K","","","","","","-","","-","","-","","-"
"S=C=NC1=CC=C(N=C1)N1CCOCC1","-","-","-","6-Morpholino-3-pyridinyl isothiocyanate","121.0 - 122.0","?C","394.5","K","","","","","","-","","-","","-","","-"
"OCC1=CC=C(N=C1)N1CCOCC1","-","-","-","(6-Morpholino-3-pyridinyl)methanol","74.0 - 76.0","?C","348.0","K","","","","","","-","","-","","-","","-"
"CC1=CC(C)=C(N1)C=O","-","-","-","3,5-Dimethyl-1H-pyrrole-2-carbaldehyde","90.0 - 91.0","?C","363.5","K","","","","","","-","","-","","-","","-"
"CC1=NC(=CS1)C1=CC=C(S1)S(Cl)(=O)=O","-","-","-","5-(2-Methyl-1,3-thiazol-4-yl)thiophene-2-sulfonyl chloride","88.0 - 90.0","?C","362.0","K","","","","","","-","","-","","-","","-"
"CC1=NC(=CS1)C1=CC=C(S1)C=O","-","-","-","5-(2-Methyl-1,3-thiazol-4-yl)-2-thiophenecarbaldehyde","127.0 - 128.0","?C","400.5","K","","","","","","-","","-","","-","","-"
"CC1=NC(=CS1)C1=CC=C(CO)S1","-","-","-","[5-(2-Methyl-1,3-thiazol-4-yl)-2-thienyl]methanol","67.0 - 69.0","?C","341.0","K","","","","","","-","","-","","-","","-"
"CC1=NC(=CS1)C1=CC=C(Br)S1","-","-","-","4-(5-Bromo-2-thienyl)-2-methyl-1,3-thiazole","78.0 - 79.0","?C","351.5","K","","","","","","-","","-","","-","","-"
"ClC(=O)C1=CSC(=N1)C1=CC=CC=C1","-","-","-","2-Phenyl-1,3-thiazole-4-carbonyl chloride","100.0","?C","373.0","K","","","","","","-","","-","","-","","-"
"O=CC1=CSC(=N1)C1=CC=CC=C1","-","-","-","2-Phenyl-1,3-thiazole-4-carbaldehyde","51.0 - 52.0","?C","324.5","K","","","","","","-","","-","","-","","-"
"OCC1=CSC(=N1)C1=CC=CC=C1","-","-","-","(2-Phenyl-1,3-thiazol-4-yl)methanol","65.0 - 69.0","?C","340.0","K","","","","","","-","","-","","-","","-"
"ClCC1=CSC(=N1)C1=CC=CC=C1","-","-","-","4-(Chloromethyl)-2-phenyl-1,3-thiazole","49.0 - 50.0","?C","322.5","K","","","","","","-","","-","","-","","-"
"OC(=O)C1=CC=C(C=C1)N1C=CC=N1","-","-","-","4-(1H-Pyrazol-1-yl)benzoic acid","269.0 - 270.0","?C","542.5","K","","","","","","-","","-","","-","","-"
"ClC(=O)C1=CC=C(C=C1)N1C=CC=N1","-","-","-","4-(1H-Pyrazol-1-yl)benzoyl chloride","127.0 - 128.0","?C","400.5","K","","","","","","-","","-","","-","","-"
"O=CC1=CC=C(C=C1)N1C=CC=N1","-","-","-","4-(1H-Pyrazol-1-yl)benzaldehyde","82.0 - 83.0","?C","355.5","K","","","","","","-","","-","","-","","-"
"S=C=NC1=CC=C(C=C1)N1C=CC=N1","-","-","-","4-(1H-Pyrazol-1-yl)phenyl isothiocyanate","97.0 - 99.0","?C","371.0","K","","","","","","-","","-","","-","","-"
"BrCC1=CC=C(C=C1)N1C=CC=N1","-","-","-","1-[4-(Bromomethyl)phenyl]-1H-pyrazole","81.0 - 83.0","?C","355.0","K","","","","","","-","","-","","-","","-"
"OCC1=CC=C(C=C1)N1C=CC=N1","-","-","-","[4-(1H-Pyrazol-1-yl)phenyl]methanol","76.0 - 80.0","?C","351.0","K","","","","","","-","","-","","-","","-"
"IC1=CC=C(C=C1)N1C=CC=N1","-","-","-","1-(4-Iodophenyl)-1H-pyrazole","91.0 - 92.0","?C","364.5","K","","","","","","-","","-","","-","","-"
"NCC1=CC=C(C=C1)N1C=CC=N1","-","-","-","4-(1H-Pyrazol-1-yl)benzylamine","75.0 - 78.0","?C","349.5","K","","","","","","-","","-","","-","","-"
"NC1=CC=C(C=C1)N1C=CC=N1","-","-","-","4-(1H-Pyrazol-1-yl)aniline","54.0 - 55.0","?C","327.5","K","","","","","","-","","-","","-","","-"
"OC(=O)C1=CC=C(C=C1)N1C=CN=C1","-","-","-","4-(1H-Imidazol-1-yl)benzoic acid","309.0 - 311.0","?C","583.0","K","","","","","","-","","-","","-","","-"
"O=CC1=CC=C(C=C1)N1C=CN=C1","-","-","-","4-(1H-Imidazol-1-yl)benzaldehyde","142.0 - 145.0","?C","416.5","K","","","","","","-","","-","","-","","-"
"OCC1=CC=C(C=C1)N1C=CN=C1","-","-","-","[4-(1H-Imidazol-1-yl)phenyl]methanol","87.0 - 89.0","?C","361.0","K","","","","","","-","","-","","-","","-"
"N#CC1=CC=C(C=C1)N1C=CN=C1","-","-","-","4-(1H-Imidazol-1-yl)benzonitrile","151.0 - 153.0","?C","425.0","K","","","","","","-","","-","","-","","-"
"OC(=O)C1=CC=C(C=C1)N1C=NC=N1","-","-","-","4-(1H-1,2,4-Triazol-1-yl)benzoic acid","318.0 - 320.0","?C","592.0","K","","","","","","-","","-","","-","","-"
"O=CC1=CC=C(C=C1)N1C=NC=N1","-","-","-","4-(1H-1,2,4-Triazol-1-yl)benzaldehyde","147.0 - 149.0","?C","421.0","K","","","","","","-","","-","","-","","-"
"BrCC1=CC=C(C=C1)N1C=NC=N1","-","-","-","1-[4-(Bromomethyl)phenyl]-1H-1,2,4-triazole 0.5 hydrobromide","280.0","?C","553.0","K","","","","","","-","","-","","-","","-"
"OCC1=CC=C(C=C1)N1C=NC=N1","-","-","-","[4-(1H-1,2,4-Triazol-1-yl)phenyl]methanol","124.0 - 125.0","?C","397.5","K","","","","","","-","","-","","-","","-"
"NC1=CC=C(C=C1)N1C=NC=N1","-","-","-","4-(1H-1,2,4-triazol-1-yl)aniline","142.0 - 144.0","?C","416.0","K","","","","","","-","","-","","-","","-"
"CN1CCN(CC1)C1=CC=C(C=C1)C(O)=O","-","-","-","4-(4-Methylpiperazino)benzoic acid","270.0","?C","543.0","K","","","","","","-","","-","","-","","-"
"CN1CCN(CC1)C1=CC=C(C=O)C=C1","-","-","-","4-(4-Methylpiperazino)benzaldehyde","57.0 - 60.0","?C","331.5","K","","","","","","-","","-","","-","","-"
"CN1CCN(CC1)C1=CC=C(CO)C=C1","-","-","-","[4-(4-Methylpiperazino)phenyl]methanol","118.0 - 119.0","?C","391.5","K","","","","","","-","","-","","-","","-"
"CN1N=C(C)C(C=O)=C1N1CCOCC1","-","-","-","1,3-Dimethyl-5-morpholino-1H-pyrazole-4-carbaldehyde","74.0 - 76.0","?C","348.0","K","","","","","","-","","-","","-","","-"
"CC1=NC(=CS1)C1=CC(=CC=C1)C(O)=O","-","-","-","3-(2-Methyl-1,3-thiazol-4-yl)benzoic acid","200.0 - 201.0","?C","473.5","K","","","","","","-","","-","","-","","-"
"CC1=NC(=CS1)C1=CC=CC(Br)=C1","-","-","-","4-(3-Bromophenyl)-2-methyl-1,3-thiazole","56.0 - 60.0","?C","331.0","K","","","","","","-","","-","","-","","-"
"CC1=NC(=CS1)C1=CC(N)=CC=C1","-","-","-","3-(2-Methyl-1,3-thiazol-4-yl)aniline","101.0 - 103.0","?C","375.0","K","","","","","","-","","-","","-","","-"
"OC(=O)C1=CN=C(OC2=CC=CC=C2)C=C1","-","-","-","6-Phenoxynicotinic acid","164.0","?C","437.0","K","","","","","","-","","-","","-","","-"
"ClC(=O)C1=CN=C(OC2=CC=CC=C2)C=C1","-","-","-","6-Phenoxynicotinoyl chloride","80.0 - 82.0","?C","354.0","K","","","","","","-","","-","","-","","-"
"ClS(=O)(=O)C1=CN=C(OC2=CC=CC=C2)C=C1","-","-","-","6-Phenoxy-3-pyridinesulfonyl chloride","114.0 - 116.0","?C","388.0","K","","","","","","-","","-","","-","","-"
"S=C=NC1=CC=C(OC2=CC=CC=C2)N=C1","-","-","-","6-Phenoxy-3-pyridinyl isothiocyanate","41.0 - 42.0","?C","314.5","K","","","","","","-","","-","","-","","-"
"NC1=CN=C(OC2=CC=CC=C2)C=C1","-","-","-","6-Phenoxy-3-pyridinamine","71.0 - 72.0","?C","344.5","K","","","","","","-","","-","","-","","-"
"CC1=NC(=NO1)C1=CC=C(Br)S1","-","-","-","3-(5-Bromo-2-thienyl)-5-methyl-1,2,4-oxadiazole","54.0 - 55.0","?C","327.5","K","","","","","","-","","-","","-","","-"
"CC1=C(SC(=N1)C1=NC=CN=C1)C(O)=O","-","-","-","4-Methyl-2-(2-pyrazinyl)-1,3-thiazole-5-carboxylic acid","237.0 - 238.0","?C","510.5","K","","","","","","-","","-","","-","","-"
"CC1=C(SC(=N1)C1=NC=CN=C1)C(Cl)=O","-","-","-","4-Methyl-2-(2-pyrazinyl)-1,3-thiazole-5-carbonyl chloride","101.0","?C","374.0","K","","","","","","-","","-","","-","","-"
"CC1=C(SC(=N1)C1=NC=CN=C1)C(=O)CBr","-","-","-","2-Bromo-1-[4-methyl-2-(2-pyrazinyl)-1,3-thiazol-5-yl]-1-ethanone","100.0","?C","373.0","K","","","","","","-","","-","","-","","-"
"CC1=NC=C(C(O)=O)C(=N1)C1=CC=CC=C1","-","-","-","2-Methyl-4-phenyl-5-pyrimidinecarboxylic acid","210.0 - 211.0","?C","483.5","K","","","","","","-","","-","","-","","-"
"CC1=NC(=NC=C1C=O)C1=CC=CC=C1","-","-","-","4-Methyl-2-phenyl-5-pyrimidinecarbaldehyde","101.0 - 103.0","?C","375.0","K","","","","","","-","","-","","-","","-"
"CC1=NC(=NC=C1CO)C1=CC=CC=C1","-","-","-","(4-Methyl-2-phenyl-5-pyrimidinyl)methanol","85.0 - 86.0","?C","358.5","K","","","","","","-","","-","","-","","-"
"CC1=NC(=NC=C1C(=O)NN)C1=CC=CC=C1","-","-","-","4-Methyl-2-phenyl-5-pyrimidinecarbohydrazide","185.0 - 187.0","?C","459.0","K","","","","","","-","","-","","-","","-"
"CC1=NOC(=C1C(O)=O)C1=CC=CC=C1","-","-","-","3-Methyl-5-phenyl-4-isoxazolecarboxylic acid","190.0 - 191.0","?C","463.5","K","","","","","","-","","-","","-","","-"
"CC1=NOC(=C1C=O)C1=CC=CC=C1","-","-","-","3-Methyl-5-phenyl-4-isoxazolecarbaldehyde","85.0 - 87.0","?C","359.0","K","","","","","","-","","-","","-","","-"
"CC1=NOC(=C1N=C=O)C1=CC=CC=C1","-","-","-","4-Isocyanato-3-methyl-5-phenylisoxazole","79.0 - 81.0","?C","353.0","K","","","","","","-","","-","","-","","-"
"CC1=NOC(=C1CBr)C1=CC=CC=C1","-","-","-","4-(Bromomethyl)-3-methyl-5-phenylisoxazole","72.0","?C","345.0","K","","","","","","-","","-","","-","","-"
"CC1=NOC(=C1CO)C1=CC=CC=C1","-","-","-","(3-Methyl-5-phenyl-4-isoxazolyl)methanol","109.0 - 110.0","?C","382.5","K","","","","","","-","","-","","-","","-"
"CC1=NOC(=C1I)C1=CC=CC=C1","-","-","-","4-Iodo-3-methyl-5-phenylisoxazole","66.0 - 68.0","?C","340.0","K","","","","","","-","","-","","-","","-"
"OCC1CCN(CC1)C1=NC=CC=N1","-","-","-","[1-(2-Pyrimidinyl)-4-piperidinyl]methanol","52.0 - 54.0","?C","326.0","K","","","","","","-","","-","","-","","-"
"CN1C=CN=C1C(O)=O","-","-","-","1-Methyl-1H-imidazole-2-carboxylic acid","104.0 - 106.0","?C","378.0","K","","","","","","-","","-","","-","","-"
"CN1C=CN=C1CO","-","-","-","(1-Methyl-1H-imidazol-2-yl)methanol","107.0 - 111.0","?C","382.0","K","","","","","","-","","-","","-","","-"
"OC(=O)C1=CN=C(C=C1)C1=CC=CC=C1","-","-","-","6-Phenylnicotinic acid","243.0 - 245.0","?C","517.0","K","","","","","","-","","-","","-","","-"
"CC1=CC=C(OC2=CC=C(Br)C=C2)N=N1","-","-","-","3-(4-Bromophenoxy)-6-methylpyridazine","120.0","?C","393.0","K","","","","","","-","","-","","-","","-"
"CCOC(=O)C1=CC=C(OC2=CC=C(C)N=N2)C=C1","-","-","-","Ethyl 4-[(6-methyl-3-pyridazinyl)oxy]benzoate","70.0 - 73.0","?C","344.5","K","","","","","","-","","-","","-","","-"
"OC(=O)C1=C(N=NS1)C1=CC=CC=C1","-","-","-","4-Phenyl-1,2,3-thiadiazole-5-carboxylic acid","144.0 - 145.0","?C","417.5","K","","","","","","-","","-","","-","","-"
"OCC1=C(N=NS1)C1=CC=CC=C1","-","-","-","(4-Phenyl-1,2,3-thiadiazol-5-yl)methanol","116.0 - 118.0","?C","390.0","K","","","","","","-","","-","","-","","-"
"CC1=NOC(C2=C(C)N=NS2)=C1C(Cl)=O","-","-","-","3-Methyl-5-(4-methyl-1,2,3-thiadiazol-5-yl)-4-isoxazolecarbonyl chloride","66.0 - 70.0","?C","341.0","K","","","","","","-","","-","","-","","-"
"OC(=O)C1=CC(=CC=C1)N1C=CC=C1","-","-","-","3-(1H-Pyrrol-1-yl)benzoic acid","180.0 - 181.0","?C","453.5","K","","","","","","-","","-","","-","","-"
"BrCC1=CC(=CC=C1)N1C=CC=C1","-","-","-","1-[3-(Bromomethyl)phenyl]-1H-pyrrole","54.0 - 55.0","?C","327.5","K","","","","","","-","","-","","-","","-"
"BrC1=CC(=CC=C1)N1C=CC=C1","-","-","-","1-(3-Bromophenyl)-1H-pyrrole","63.0 - 64.0","?C","336.5","K","","","","","","-","","-","","-","","-"
"NC1=CC(=CC=C1)N1C=CC=C1","-","-","-","3-(1H-Pyrrol-1-yl)aniline","43.0 - 44.0","?C","316.5","K","","","","","","-","","-","","-","","-"
"[O-][N+](=O)C1=CC(=CC=C1)N1C=CC=C1","-","-","-","1-(3-Nitrophenyl)-1H-pyrrole","72.0 - 74.0","?C","346.0","K","","","","","","-","","-","","-","","-"
"OC(=O)C1=C(C=CS1)N1C=CC=C1","-","-","-","3-(1H-Pyrrol-1-yl)thiophene-2-carboxylic acid","166.0","?C","439.0","K","","","","","","-","","-","","-","","-"
"COC(=O)C1=C(C)N(C)C(C)=C1C=O","-","-","-","Methyl 4-formyl-1,2,5-trimethyl-1H-pyrrole-3-carboxylate","124.0 - 127.0","?C","398.5","K","","","","","","-","","-","","-","","-"
"OC(=O)C1=C2CCCCC2=CS1","-","-","-","4,5,6,7-Tetrahydro-2-benzothiophene-1-carboxylic acid","203.0 - 205.0","?C","477.0","K","","","","","","-","","-","","-","","-"
"CN1N=C(C)C2=C1SC(=C2)C(O)=O","-","-","-","1,3-Dimethyl-1H-thieno[2,3-c]pyrazole-5-carboxylic acid","260.0","?C","533.0","K","","","","","","-","","-","","-","","-"
"CN1N=C(C)C2=C1SC(=C2)C(Cl)=O","-","-","-","1,3-Dimethyl-1H-thieno[2,3-c]pyrazole-5-carbonyl chloride","165.0 - 167.0","?C","439.0","K","","","","","","-","","-","","-","","-"
"CN1N=C(C)C2=C1SC(CO)=C2","-","-","-","(1,3-Dimethyl-1H-thieno[2,3-c]pyrazol-5-yl)methanol","133.0 - 135.0","?C","407.0","K","","","","","","-","","-","","-","","-"
"CCOC(=O)C1=C(C)C(=C(C)N1)S(Cl)(=O)=O","-","-","-","Ethyl 4-(chlorosulfonyl)-3,5-dimethyl-1H-pyrrole-2-carboxylate","150.0","?C","423.0","K","","","","","","-","","-","","-","","-"
"CCOC(=O)C1=C(C)C(C=O)=C(C)N1","-","-","-","Ethyl 4-formyl-3,5-dimethyl-1H-pyrrole-2-carboxylate","145.0 - 146.0","?C","418.5","K","","","","","","-","","-","","-","","-"
"CCOC(=O)C1=C(C)C(CO)=C(C)N1","-","-","-","Ethyl 4-(hydroxymethyl)-3,5-dimethyl-1H-pyrrole-2-carboxylate","220.0 - 222.0","?C","494.0","K","","","","","","-","","-","","-","","-"
"O=CC1=NOC(=C1)C1=CC=CS1","-","-","-","5-(2-Thienyl)-3-isoxazolecarbaldehyde","66.0","?C","339.0","K","","","","","","-","","-","","-","","-"
"OCC1=NOC(=C1)C1=CC=CS1","-","-","-","[5-(2-Thienyl)-3-isoxazolyl]methanol","62.0 - 64.0","?C","336.0","K","","","","","","-","","-","","-","","-"
"CCOC(=O)C1=NOC(=C1)C1=CC=C(Br)S1","-","-","-","Ethyl 5-(5-bromo-2-thienyl)-3-isoxazolecarboxylate","51.0 - 53.0","?C","325.0","K","","","","","","-","","-","","-","","-"
"CN1N=NC2=C1C=CC(=C2)C(O)=O","-","-","-","1-Methyl-1H-1,2,3-benzotriazole-5-carboxylic acid","250.0","?C","523.0","K","","","","","","-","","-","","-","","-"
"CN1N=NC2=C1C=CC(=C2)C(Cl)=O","-","-","-","1-Methyl-1H-1,2,3-benzotriazole-5-carbonyl chloride","125.0 - 126.0","?C","398.5","K","","","","","","-","","-","","-","","-"
"CN1N=NC2=C1C=CC(C=O)=C2","-","-","-","1-Methyl-1H-1,2,3-benzotriazole-5-carbaldehyde","162.0","?C","435.0","K","","","","","","-","","-","","-","","-"
"CN1N=NC2=C1C=CC(CBr)=C2","-","-","-","5-(Bromomethyl)-1-methyl-1H-1,2,3-benzotriazole","120.0","?C","393.0","K","","","","","","-","","-","","-","","-"
"CN1N=NC2=C1C=CC(CO)=C2","-","-","-","(1-Methyl-1H-1,2,3-benzotriazol-5-yl)methanol","94.0 - 96.0","?C","368.0","K","","","","","","-","","-","","-","","-"
"CN1C=NC=C1C(O)=O","-","-","-","1-Methyl-1H-imidazole-5-carboxylic acid","247.0 - 248.0","?C","520.5","K","","","","","","-","","-","","-","","-"
"CN1C=NC=C1C(=O)NN","-","-","-","1-Methyl-1H-imidazole-5-carbohydrazide","186.0 - 187.0","?C","459.5","K","","","","","","-","","-","","-","","-"
"OC(=O)C1CC2=CC=CC=C2O1","-","-","-","2,3-Dihydro-1-benzofuran-2-carboxylic acid","117.0 - 118.0","?C","390.5","K","","","","","","-","","-","","-","","-"
"OC(=O)C1=CC2=CC=CC=C2OC1","-","-","-","2H-Chromene-3-carboxylic acid","150.0","?C","423.0","K","","","","","","-","","-","","-","","-"
"ClC(=O)C1=CC2=CC=CC=C2OC1","-","-","-","2H-Chromene-3-carbonyl chloride","70.0 - 73.0","?C","344.5","K","","","","","","-","","-","","-","","-"
"NC(=S)C1=CC2=CC=CC=C2OC1","-","-","-","2H-Chromene-3-carbothioamide","172.0 - 174.0","?C","446.0","K","","","","","","-","","-","","-","","-"
"OC(=O)C1=CC(=CN=C1)C1=CC=CC=C1","-","-","-","5-Phenylnicotinic acid","260.0","?C","533.0","K","","","","","","-","","-","","-","","-"
"OCC1=CC=CC=C1N1CCOCC1","-","-","-","(2-Morpholinophenyl)methanol","54.0 - 57.0","?C","328.5","K","","","","","","-","","-","","-","","-"
"OC(=O)C1=CC=NN1C1=CC=CC=C1","-","-","-","1-Phenyl-1H-pyrazole-5-carboxylic acid","182.0 - 183.0","?C","455.5","K","","","","","","-","","-","","-","","-"
"OC(=O)C1=CC=CN=C1N1CCOCC1","-","-","-","2-Morpholinonicotinic acid","129.0 - 133.0","?C","404.0","K","","","","","","-","","-","","-","","-"
"OCC1=CC=CN=C1N1CCOCC1","-","-","-","(2-Morpholino-3-pyridinyl)methanol","80.0 - 83.0","?C","354.5","K","","","","","","-","","-","","-","","-"
"NC1=CC=CN=C1N1CCOCC1","-","-","-","2-Morpholino-3-pyridinamine","127.0 - 128.0","?C","400.5","K","","","","","","-","","-","","-","","-"
"OC(=O)C1CCCN(C1)C(=O)OCC1=CC=CC=C1","-","-","-","1-[(Benzyloxy)carbonyl]-3-piperidinecarboxylic acid","90.0 - 94.0","?C","365.0","K","","","","","","-","","-","","-","","-"
"OC(=O)C1=CC2=C(SC=C2)C=C1","-","-","-","1-Benzothiophene-5-carboxylic acid","213.0 - 214.0","?C","486.5","K","","","","","","-","","-","","-","","-"
"ClC(=O)C1=CC2=C(SC=C2)C=C1","-","-","-","1-Benzothiophene-5-carbonyl chloride","86.0 - 87.0","?C","359.5","K","","","","","","-","","-","","-","","-"
"OCC1=CC2=C(SC=C2)C=C1","-","-","-","1-Benzothiophen-5-ylmethanol","91.0 - 92.0","?C","364.5","K","","","","","","-","","-","","-","","-"
"BrC1=CC2=C(SC=C2)C=C1","-","-","-","5-Bromo-1-benzothiophene","47.0 - 48.0","?C","320.5","K","","","","","","-","","-","","-","","-"
"NC1=CC2=C(SC=C2)C=C1","-","-","-","1-Benzothiophen-5-amine","72.0 - 75.0","?C","346.5","K","","","","","","-","","-","","-","","-"
"CC1=CC(C(O)=O)=C(C)N1C1CC1","-","-","-","1-Cyclopropyl-2,5-dimethyl-1H-pyrrole-3-carboxylic acid","178.0 - 185.0","?C","454.5","K","","","","","","-","","-","","-","","-"
"OC(=O)C1=CC=C(C=C1)N1C=CC=C1","-","-","-","4-(1H-Pyrrol-1-yl)benzoic acid","288.0 - 291.0","?C","562.5","K","","","","","","-","","-","","-","","-"
"O=CC1=CC=C(C=C1)N1C=CC=C1","-","-","-","4-(1H-Pyrrol-1-yl)benzaldehyde","94.0 - 95.0","?C","367.5","K","","","","","","-","","-","","-","","-"
"BrCC1=CC=C(C=C1)N1C=CC=C1","-","-","-","1-[4-(Bromomethyl)phenyl]-1H-pyrrole","86.0 - 91.0","?C","361.5","K","","","","","","-","","-","","-","","-"
"OCC1=CC=C(C=C1)N1C=CC=C1","-","-","-","[4-(1H-Pyrrol-1-yl)phenyl]methanol","102.0 - 105.0","?C","376.5","K","","","","","","-","","-","","-","","-"
"NC1=CC=C(C=C1)N1C=CC=C1","-","-","-","4-(1H-Pyrrol-1-yl)aniline","81.0","?C","354.0","K","","","","","","-","","-","","-","","-"
"OC(=O)C1=C2C=CC=CN2N=C1","-","-","-","Pyrazolo[1,5-a]pyridine-3-carboxylic acid","199.0 - 201.0","?C","473.0","K","","","","","","-","","-","","-","","-"
"CC1=NC(C(O)=O)=C(C)O1","-","-","-","2,5-Dimethyl-1,3-oxazole-4-carboxylic acid","232.0 - 233.0","?C","505.5","K","","","","","","-","","-","","-","","-"
"CC1=NC(C(Cl)=O)=C(C)O1","-","-","-","2,5-Dimethyl-1,3-oxazole-4-carbonyl chloride","217.0 - 221.0","?C","492.0","K","","","","","","-","","-","","-","","-"
"CC1(C)CC2=C(O1)C(C=O)=CC=C2","-","-","-","2,2-Dimethyl-2,3-dihydro-1-benzofuran-7-carbaldehyde","81.0 - 83.0","?C","355.0","K","","","","","","-","","-","","-","","-"
"CC1(C)CC2=C(O1)C(CO)=CC=C2","-","-","-","(2,2-Dimethyl-2,3-dihydro-1-benzofuran-7-yl)methanol","59.0 - 60.0","?C","332.5","K","","","","","","-","","-","","-","","-"
"BrCC(=O)C1=COC2=C1C=CC=C2","-","-","-","1-(1-Benzofuran-3-yl)-2-bromo-1-ethanone","136.0 - 137.0","?C","409.5","K","","","","","","-","","-","","-","","-"
"CC1=C(C)N=C2C=C(C=CC2=N1)C(O)=O","-","-","-","2,3-Dimethyl-quinoxaline-6-carboxylic acid","230.0","?C","503.0","K","","","","","","-","","-","","-","","-"
"OC(=O)C1=CC(Br)=CS1","-","-","-","4-Bromo-2-thiophenecarboxylic acid","121.0","?C","394.0","K","","","","","","-","","-","","-","","-"