"SMILES","CASRN","EXTERNALID","N","NAME","Melting Point","UNIT {Melting Point}","Melting Point {measured, converted}","UNIT {Melting Point}","Dataset","comment (property)","comment (chemical)","measurement method","Pressure","UNIT {Pressure}","Som set numeric condition","UNIT {Som set numeric condition}","Resp set numeric condition","UNIT {Resp set numeric condition}","Quality code","UNIT {Quality code}"
"CC(C)(C)C1=CC=C(OC2=CC=C(C=C2C=O)[N+]([O-])=O)C=C1","-","-","-","2-[4-(tert-Butyl)phenoxy]-5-nitrobenzaldehyde","134.0 - 136.0","?C","408.0","K","","","","","","-","","-","","-","","-"
"CC1=CC=C(SC2=CC=C(C=CC(O)=O)C=C2[N+]([O-])=O)C=C1","-","-","-","3-[4-[(4-Methylphenyl)thio]-3-nitrophenyl]acrylic acid","217.0 - 218.0","?C","490.5","K","","","","","","-","","-","","-","","-"
"OC(=O)C=CC1=CC(=CC=C1SC1=CC=C(Cl)C=C1)[N+]([O-])=O","-","-","-","3-[2-[(4-Chlorophenyl)thio]-5-nitrophenyl]acrylic acid","212.0 - 215.0","?C","486.5","K","","","","","","-","","-","","-","","-"
"OC(=O)C=CC1=CC=C(SC2=CC=C(Cl)C=C2)C(=C1)[N+]([O-])=O","-","-","-","3-[4-[(4-Chlorophenyl)thio]-3-nitrophenyl]acrylic acid","233.0 - 235.0","?C","507.0","K","","","","","","-","","-","","-","","-"
"[O-][N+](=O)C1=CC(C=O)=CC=C1SCC1=CC=CO1","-","-","-","4-[(2-Furylmethyl)thio]-3-nitrobenzaldehyde","153.0 - 154.0","?C","426.5","K","","","","","","-","","-","","-","","-"
"[O-][N+](=O)C1=CC=C(SC2=NC=CC=C2)C(C=O)=C1","-","-","-","5-Nitro-2-(2-pyridylthio)benzaldehyde","109.0 - 110.0","?C","382.5","K","","","","","","-","","-","","-","","-"
"OC(=O)C=CC1=CC=C(SC2=CC=CC=N2)C(=C1)[N+]([O-])=O","-","-","-","3-[3-Nitro-4-(2-pyridylthio)phenyl]acrylic acid","177.0 - 178.0","?C","450.5","K","","","","","","-","","-","","-","","-"
"CC1C(C1C(=O)NN)C(=O)NN","-","-","-","3-Methylcyclopropane-1,2-dicarbohydrazide","242.0 - 245.0","?C","516.5","K","","","","","","-","","-","","-","","-"
"NNC(=O)C1CC1C(=O)NN","-","-","-","Cyclopropane-1,2-dicarbohydrazide","187.0 - 191.0","?C","462.0","K","","","","","","-","","-","","-","","-"
"O=CC1=CC=CC2=C1OCCO2","-","-","-","2,3-Dihydro-1,4-benzodioxine-5-carbaldehyde","62.0 - 63.0","?C","335.5","K","","","","","","-","","-","","-","","-"
"OCC1=CC2=C(OC=C2)C=C1","-","-","-","1-Benzofuran-5-ylmethanol","35.0 - 36.0","?C","308.5","K","","","","","","-","","-","","-","","-"
"BrCC1=CC=CC2=NON=C12","-","-","-","4-(Bromomethyl)-2,1,3-benzoxadiazole","77.0 - 79.0","?C","351.0","K","","","","","","-","","-","","-","","-"
"OCC1=CC=CC2=NON=C12","-","-","-","2,1,3-Benzoxadiazol-4-ylmethanol","72.0","?C","345.0","K","","","","","","-","","-","","-","","-"
"S=C=NC1=CC=C(C=C1)N1CCOCC1","-","-","-","4-Morpholinophenyl isothiocyanate","84.0 - 85.0","?C","357.5","K","","","","","","-","","-","","-","","-"
"IC1=CC=C(C=C1)N1CCOCC1","-","-","-","4-(4-Iodophenyl)morpholine","131.0 - 132.0","?C","404.5","K","","","","","","-","","-","","-","","-"
"CC1=NC(=CS1)C1=CC=C(S1)C(O)=O","-","-","-","5-(2-Methyl-1,3-thiazol-4-yl)-2-thiophenecarboxylic acid","200.0","?C","473.0","K","","","","","","-","","-","","-","","-"
"CN1N=C(C)C(N)=C1N1CCOCC1","-","-","-","1,3-Dimethyl-5-morpholino-1H-pyrazol-4-amine","156.0 - 157.0","?C","429.5","K","","","","","","-","","-","","-","","-"
"N#CC1=CC=C(C=C1)N1C=CC=C1","-","-","-","4-(1H-Pyrrol-1-yl)benzonitrile","103.0 - 105.0","?C","377.0","K","","","","","","-","","-","","-","","-"
"CCC1CCC(C)(C)C2=C1C=C(C=C2)C(O)=O","-","-","-","5,5,8,8-Tetramethyl-5,6,7,8-tetrahydro-2-naphthalenecarboxylic acid","197.0 - 199.0","?C","471.0","K","","","","","","-","","-","","-","","-"
"CC1(C)CCC(C)(C)C2=C1C=CC(=C2)S(Cl)(=O)=O","-","-","-","5,5,8,8-Tetramethyl-5,6,7,8-tetrahydro-2-naphthalenesulfonyl chloride","78.0 - 80.0","?C","352.0","K","","","","","","-","","-","","-","","-"
"CSC1=NC=C(N1CC1=CC=CC=C1)C(O)=O","-","-","-","1-Benzyl-2-(methylsulfanyl)-1H-imidazole-5-carboxylic acid","178.0 - 179.0","?C","451.5","K","","","","","","-","","-","","-","","-"
"CSC1=NC=C(C=O)N1CC1=CC=CC=C1","-","-","-","1-Benzyl-2-(methylsulfanyl)-1H-imidazole-5-carbaldehyde","86.0 - 88.0","?C","360.0","K","","","","","","-","","-","","-","","-"
"CC1=C(SC(=N1)C1=CC=CC=C1)C=O","-","-","-","4-Methyl-2-phenyl-1,3-thiazole-5-carbaldehyde","111.0 - 113.0","?C","385.0","K","","","","","","-","","-","","-","","-"
"CC1=C(CO)SC(=N1)C1=CC=CC=C1","-","-","-","(4-Methyl-2-phenyl-1,3-thiazol-5-yl)methanol","99.0 - 102.0","?C","373.5","K","","","","","","-","","-","","-","","-"
"OCC1=CC=C(CN2CCOCC2)C=C1","-","-","-","[4-(Morpholinomethyl)phenyl]methanol","94.0","?C","367.0","K","","","","","","-","","-","","-","","-"
"COC1=CC=C(C=C1)C1=NOC(CCl)=N1","-","-","-","5-(Chloromethyl)-3-(4-methoxyphenyl)-1,2,4-oxadiazole","52.0 - 53.0","?C","325.5","K","","","","","","-","","-","","-","","-"
"NNC(=O)C1=CC=C(C=C1)C(F)(F)F","-","-","-","4-(Trifluoromethyl)benzene-1-carbohydrazide","121.0","?C","394.0","K","","","","","","-","","-","","-","","-"
"ClC(=O)C1=C(Cl)C2=CC=CC=C2S1","-","-","-","3-Chlorobenzo[b]thiophene-2-carbonyl chloride","113.0 - 114.0","?C","386.5","K","","","","","","-","","-","","-","","-"
"NNC(=O)C1=C(Cl)C2=C(S1)C=CC=C2","-","-","-","3-Chlorobenzo[b]thiophene-2-carbohydrazide","181.0 - 183.0","?C","455.0","K","","","","","","-","","-","","-","","-"
"CCOC(=O)C1CCN(CC1)C1=NC(Cl)=NC(Cl)=N1","-","-","-","Ethyl 1-(4,6-dichloro-1,3,5-triazin-2-yl)piperidine-4-carboxylate","150.0","?C","423.0","K","","","","","","-","","-","","-","","-"
"CCOC(=O)CCC1=CC=C(O)C=C1","-","-","-","Ethyl 3-(4-hydroxyphenyl)propanoate","40.0 - 42.0","?C","314.0","K","","","","","","-","","-","","-","","-"
"CC(=O)C1=CC2=CC(Cl)=CC(Cl)=C2OC1=O","-","-","-","3-Acetyl-6,8-dichloro-2H-chromen-2-one","172.0 - 174.0","?C","446.0","K","","","","","","-","","-","","-","","-"
"NC1=CC=C(CC2=CC=NC=C2)C=C1","-","-","-","4-(4-Pyridylmethyl)aniline","156.0 - 160.0","?C","431.0","K","","","","","","-","","-","","-","","-"
"OC(=O)C1=CC2=C(OC1=O)C(Cl)=CC(Cl)=C2","-","-","-","6,8-Dichloro-2-oxo-2H-chromene-3-carboxylic acid","198.0 - 200.0","?C","472.0","K","","","","","","-","","-","","-","","-"
"[O-][N+](=O)C1=C(C=CC(=C1)C(F)(F)F)N1CCCCC1","-","-","-","1-[2-Nitro-4-(trifluoromethyl)phenyl]piperidine","48.0 - 50.0","?C","322.0","K","","","","","","-","","-","","-","","-"
"NC1=CC(=CC=C1N1CCOCC1)C(F)(F)F","-","-","-","2-Morpholino-5-(trifluoromethyl)aniline","135.0 - 137.0","?C","409.0","K","","","","","","-","","-","","-","","-"
"NC1=C(C=C(Br)C=C1Br)C(O)=O","-","-","-","2-Amino-3,5-dibromobenzoic acid","235.0 - 236.0","?C","508.5","K","","","","","","-","","-","","-","","-"
"CCOC(=O)C1=CNC2=C(C=CC=C2F)C1=O","-","-","-","Ethyl 8-fluoro-4-hydroxy-3-quinolinecarboxylate","205.0 - 210.0","?C","480.5","K","","","","","","-","","-","","-","","-"
"CCC1CC(C)(C)C2=C1C(=C(C)C(N)=C2)[N+]([O-])=O","-","-","-","1,1,3,3,6-Pentamethyl-7-nitro-5-indanamine","171.0 - 173.0","?C","445.0","K","","","","","","-","","-","","-","","-"
"[O-][N+](=O)C1=CC=C(C=C1)N1CCCCC1","-","-","-","1-(4-Nitrophenyl)piperidine","104.0 - 106.0","?C","378.0","K","","","","","","-","","-","","-","","-"
"[O-][N+](=O)C1=CC=CC=C1N1CCCCC1","-","-","-","1-(2-Nitrophenyl)piperidine","77.0 - 79.0","?C","351.0","K","","","","","","-","","-","","-","","-"
"NC1=C(C=CC=C1)N1CCOCC1","-","-","-","2-Morpholinoaniline","98.0 - 99.0","?C","371.5","K","","","","","","-","","-","","-","","-"
"SC1=NC2=CC(Cl)=C(Cl)C=C2N1","-","-","-","5,6-Dichloro-1H-benzo[d]imidazole-2-thiol","300.0","?C","573.0","K","","","","","","-","","-","","-","","-"
"[O-][N+](=O)C1=C(OC2=CC=C(C=C2)S(Cl)(=O)=O)C(Cl)=CC=C1","-","-","-","4-(2-Chloro-6-nitrophenoxy)benzene-1-sulfonyl chloride","125.0 - 27.0","?C","349.0","K","","","","","","-","","-","","-","","-"
"[O-][N+](=O)C1=CC=C(N2C=CC=C2)C(=C1)C#N","-","-","-","5-Nitro-2-(1H-pyrrol-1-yl)benzonitrile","96.0 - 98.0","?C","370.0","K","","","","","","-","","-","","-","","-"
"CC1=CC(=CC=C1Cl)C(=O)CBr","-","-","-","2-Bromo-1-(4-chloro-3-methylphenyl)ethan-1-one","56.0 - 57.0","?C","329.5","K","","","","","","-","","-","","-","","-"
"ClC(=O)C1=CC=CN=C1OC1=CC=CC=C1","-","-","-","2-Phenoxypyridine-3-carbonyl chloride","90.0 - 91.0","?C","363.5","K","","","","","","-","","-","","-","","-"
"NC(=O)C1=CC=CN=C1OC1=CC=CC=C1","-","-","-","2-Phenoxynicotinamide","162.0 - 163.0","?C","435.5","K","","","","","","-","","-","","-","","-"
"O=C1C2=C(OC3=C1C=CC=N3)C=CC=C2","-","-","-","5H-chromeno[2,3-b]pyridin-5-one","180.0 - 182.0","?C","454.0","K","","","","","","-","","-","","-","","-"
"[O-][N+](=O)C1=C(C=CC(=C1)C(F)(F)F)N1CCNCC1","-","-","-","1-[2-Nitro-4-(trifluoromethyl)phenyl]piperazine","65.0 - 66.0","?C","338.5","K","","","","","","-","","-","","-","","-"
"NC1=CC=C(Cl)C=C1C(=O)NCC1=CC=CS1","-","-","-","N1-(2-Thienylmethyl)-2-amino-5-chlorobenzamide","157.0 - 158.0","?C","430.5","K","","","","","","-","","-","","-","","-"
"[O-][N+](=O)C1=CN=C(OC2=CC=C(Cl)C=C2)C=C1","-","-","-","2-(4-Chlorophenoxy)-5-nitropyridine","93.0 - 96.0","?C","367.5","K","","","","","","-","","-","","-","","-"
"NC(=S)C1=CC(Cl)=C(F)C=C1","-","-","-","3-Chloro-4-fluorobenzene-1-carbothioamide","129.0 - 131.0","?C","403.0","K","","","","","","-","","-","","-","","-"
"[O-][N+](=O)C1=CC=C(OC2=C(Cl)C=CC=C2Cl)C(Cl)=C1","-","-","-","1,3-Dichloro-2-(2-chloro-4-nitrophenoxy)benzene","136.0 - 138.0","?C","410.0","K","","","","","","-","","-","","-","","-"
"CC1=CC(Cl)=CC(C=O)=C1O","-","-","-","5-Chloro-2-hydroxy-3-methylbenzaldehyde","67.0 - 68.0","?C","340.5","K","","","","","","-","","-","","-","","-"
"[O-][N+](=O)C1=CC(Cl)=C(OC2=C(Cl)C=C(C=C2Cl)S(Cl)(=O)=O)C=C1","-","-","-","3,5-Dichloro-4-(2-chloro-4-nitrophenoxy)benzene-1-sulfonyl chloride","159.0 - 160.0","?C","432.5","K","","","","","","-","","-","","-","","-"
"[O-][N+](=O)C1=CC=CN=C1SC1=CC=C(Cl)C=C1","-","-","-","2-[(4-Chlorophenyl)thio]-3-nitropyridine","127.0 - 129.0","?C","401.0","K","","","","","","-","","-","","-","","-"
"OC1=NC=NC2=C1C(F)=CC=C2","-","-","-","5-Fluoroquinazolin-4-ol","238.0","?C","511.0","K","","","","","","-","","-","","-","","-"
"CC(=O)C1=CC(F)=CC(F)=C1O","-","-","-","1-(3,5-Difluoro-2-hydroxyphenyl)ethan-1-one","109.0 - 110.0","?C","382.5","K","","","","","","-","","-","","-","","-"
"CCOC(=O)C1=CNC(=S)N=C1N","-","-","-","Ethyl 4-amino-2-mercaptopyrimidine-5-carboxylate","256.0 - 258.0","?C","530.0","K","","","","","","-","","-","","-","","-"
"NC1=C(Br)C=C(Br)C(Cl)=C1C(O)=O","-","-","-","2-Amino-3,5-dibromo-6-chlorobenzoic acid","212.0 - 215.0","?C","486.5","K","","","","","","-","","-","","-","","-"
"CCCC1=CC=C(NC(C)=O)C=C1","-","-","-","N1-(4-Propylphenyl)acetamide","98.0 - 100.0","?C","372.0","K","","","","","","-","","-","","-","","-"
"NC1=C(Br)C=C(C=C1Br)C1CCCCC1","-","-","-","2,6-Dibromo-4-cyclohexylaniline","37.0 - 38.0","?C","310.5","K","","","","","","-","","-","","-","","-"
"FC(F)(F)C1=CC2=C(N=CN2)C(Br)=C1","-","-","-","4-Bromo-6-(trifluoromethyl)-1H-benzo[d]imidazole","218.0 - 220.0","?C","492.0","K","","","","","","-","","-","","-","","-"
"CC1=C(Cl)C=CC(OC2=CC=C(C=C2[N+]([O-])=O)C(F)(F)F)=C1","-","-","-","1-(4-Chloro-3-methylphenoxy)-2-nitro-4-(trifluoromethyl)benzene","57.0 - 59.0","?C","331.0","K","","","","","","-","","-","","-","","-"
"NS(=O)(=O)C1=CC(Cl)=CC(Cl)=C1","-","-","-","3,5-Dichlorobenzene-1-sulfonamide","170.0 - 172.0","?C","444.0","K","","","","","","-","","-","","-","","-"
"OCCCC1=NC2=CC(=CC=C2N1)C(F)(F)F","-","-","-","3-[5-(Trifluoromethyl)-1H-benzo[d]imidazol-2-yl]propan-1-ol","134.0 - 135.0","?C","407.5","K","","","","","","-","","-","","-","","-"
"FC(F)(F)C1=CC2=C(N=C(S)N2)C(Cl)=C1","-","-","-","4-Chloro-6-(trifluoromethyl)-1H-benzo[d]imidazole-2-thiol","310.0 - 312.0","?C","584.0","K","","","","","","-","","-","","-","","-"
"[O-][N+](=O)C1=CC=C(C=C1)N1CCOCC1","-","-","-","4-(4-Nitrophenyl)morpholine","152.0","?C","425.0","K","","","","","","-","","-","","-","","-"
"NC1=CC=C(Cl)N=N1","-","-","-","6-Chloropyridazin-3-amine","210.0 - 211.0","?C","483.5","K","","","","","","-","","-","","-","","-"
"CC1CC(CC(C)O1)C1=CC(O)=C(C=C1)[N+]([O-])=O","-","-","-","5-(2,6-Dimethylmorpholino)-2-nitrophenol","128.0 - 131.0","?C","402.5","K","","","","","","-","","-","","-","","-"
"CC1=CC(SC2=NN=C(N)S2)=C2C=CC=CC2=N1","-","-","-","5-[(2-Methyl-4-quinolyl)thio]-1,3,4-thiadiazol-2-amine","197.0 - 200.0","?C","471.5","K","","","","","","-","","-","","-","","-"
"CC1=CC=C2C=C(C=CC2=N1)[N+]([O-])=O","-","-","-","2-Methyl-6-nitroquinoline","165.0 - 166.0","?C","438.5","K","","","","","","-","","-","","-","","-"
"OS(=O)(=O)C1=CC=CC2=CC=CC(Cl)=C12","-","-","-","8-Chloronaphthalene-1-sulfonic acid","145.0 - 147.0","?C","419.0","K","","","","","","-","","-","","-","","-"
"CCCCCSC1=NC=CC=C1C(O)=O","-","-","-","2-(Pentylthio)nicotinic acid","118.0 - 120.0","?C","392.0","K","","","","","","-","","-","","-","","-"
"CCCSC1=NC=CC=C1C(Cl)=O","-","-","-","2-(Propylthio)pyridine-3-carbonyl chloride","43.4","?C","316.4","K","","","","","","-","","-","","-","","-"
"O=C1N(CC#N)S(=O)(=O)C2=CC=CC=C12","-","-","-","2-(1,1,3-Trioxo-2,3-dihydro-1H-1lambda6-benzo[d]isothiazol-2-yl)acetonitrile","142.0 - 143.0","?C","415.5","K","","","","","","-","","-","","-","","-"
"CCSC1=NC=CC=C1C(O)=O","-","-","-","2-(Ethylthio)nicotinic acid","185.0 - 187.0","?C","459.0","K","","","","","","-","","-","","-","","-"
"FC1=C(F)C=C(C=C1)C(=O)CBr","-","-","-","2-Bromo-1-(3,4-difluorophenyl)ethan-1-one","28.0 - 30.0","?C","302.0","K","","","","","","-","","-","","-","","-"
"N#CC1=CC=CN=C1SC1=CC=CC=C1","-","-","-","2-(Phenylthio)nicotinonitrile","105.0 - 107.0","?C","379.0","K","","","","","","-","","-","","-","","-"
"CC(=O)NC1=CC=C(N)C=C1C","-","-","-","N1-(4-Amino-2-methylphenyl)acetamide","141.0 - 142.0","?C","414.5","K","","","","","","-","","-","","-","","-"
"CC1=C(Br)C=C(N)C(N)=C1C","-","-","-","5-Bromo-3,4-dimethylbenzene-1,2-diamine","70.0 - 74.0","?C","345.0","K","","","","","","-","","-","","-","","-"
"NC1=NC(=CS1)C1=CC=C(F)C(F)=C1","-","-","-","4-(3,4-Difluorophenyl)-1,3-thiazol-2-amine","116.0 - 117.0","?C","389.5","K","","","","","","-","","-","","-","","-"
"CC1=CC=C(COC2=CC=C(CC#N)C=C2)C=C1","-","-","-","2-[4-[(4-Methylbenzyl)oxy]phenyl]acetonitrile","121.0 - 123.0","?C","395.0","K","","","","","","-","","-","","-","","-"
"ClC1=C(Cl)C=C(COC2=CC=C(CC#N)C=C2)C=C1","-","-","-","2-[4-[(3,4-Dichlorobenzyl)oxy]phenyl]acetonitrile","76.0 - 77.0","?C","349.5","K","","","","","","-","","-","","-","","-"
"FC1=CC=CC(Cl)=C1COC1=CC=C(CC#N)C=C1","-","-","-","2-[4-[(2-Chloro-6-fluorobenzyl)oxy]phenyl]acetonitrile","78.0 - 79.0","?C","351.5","K","","","","","","-","","-","","-","","-"
"OC(=O)C1=NNC(=O)CC1","-","-","-","6-Oxo-1,4,5,6-tetrahydropyridazine-3-carboxylic acid","199.0 - 200.0","?C","472.5","K","","","","","","-","","-","","-","","-"
"ClC1=CC=C(C=C1)S(=O)(=O)OC1=CC=C(CC#N)C=C1","-","-","-","4-(Cyanomethyl)phenyl 4-chlorobenzene-1-sulfonate","95.0 - 97.0","?C","369.0","K","","","","","","-","","-","","-","","-"
"ClC1=CC(=CC(Cl)=C1)S(=O)(=O)OC1=CC=C(CC#N)C=C1","-","-","-","4-(Cyanomethyl)phenyl 3,5-dichlorobenzene-1-sulfonate","81.0 - 83.0","?C","355.0","K","","","","","","-","","-","","-","","-"
"ClC1=CC=C(C=C1)S(=O)(=O)N1C=CC=C1","-","-","-","1-[(4-Chlorophenyl)sulfonyl]-1H-pyrrole","116.0 - 118.0","?C","390.0","K","","","","","","-","","-","","-","","-"
"CC(=NO)C1=CN(C=C1)S(=O)(=O)C1=CC=CC=C1","-","-","-","1-[1-(Phenylsulfonyl)-1H-pyrrol-3-yl]ethan-1-one oxime","162.0 - 165.0","?C","436.5","K","","","","","","-","","-","","-","","-"
"CC1=CC=CC(NC(=O)C(F)(F)F)=C1C(O)=O","-","-","-","2-Methyl-6-[(2,2,2-trifluoroacetyl)amino]benzoic acid","168.0 - 169.0","?C","441.5","K","","","","","","-","","-","","-","","-"
"CC(=O)C1=CNC=C1","-","-","-","1-(1H-Pyrrol-3-yl)ethan-1-one","112.0 - 114.0","?C","386.0","K","","","","","","-","","-","","-","","-"
"NC1=CN=C(SC2=CC(Cl)=CC=C2Cl)C=C1","-","-","-","6-[(2,5-Dichlorophenyl)thio]pyridin-3-amine","108.0 - 109.0","?C","381.5","K","","","","","","-","","-","","-","","-"
"NC1=CN=C(OC2=CC=C(Br)C=C2)C=C1","-","-","-","6-(4-Bromophenoxy)pyridin-3-amine","107.0 - 109.0","?C","381.0","K","","","","","","-","","-","","-","","-"
"ClC1=CC=CC(Cl)=C1CN1N=CC(Cl)=C(Cl)C1=O","-","-","-","4,5-Dichloro-2-(2,6-dichlorobenzyl)-2,3-dihydropyridazin-3-one","158.0 - 160.0","?C","432.0","K","","","","","","-","","-","","-","","-"
"FC1=C(CN2N=CC(Cl)=C(Cl)C2=O)C(Cl)=CC=C1","-","-","-","4,5-Dichloro-2-(2-chloro-6-fluorobenzyl)-2,3-dihydropyridazin-3-one","137.0 - 138.0","?C","410.5","K","","","","","","-","","-","","-","","-"
"CN(N)C1=C(Cl)C(=O)N(C)N=C1","-","-","-","4-Chloro-2-methyl-5-(1-methylhydrazino)-2,3-dihydropyridazin-3-one","131.0 - 133.0","?C","405.0","K","","","","","","-","","-","","-","","-"
"[O-][N+](=O)C1=CN=C(OC2=CC=C(CC#N)C=C2)C=C1","-","-","-","2-{4-[(5-Nitro-2-pyridyl)oxy]phenyl}acetonitrile","118.0 - 119.0","?C","391.5","K","","","","","","-","","-","","-","","-"
"CC(=O)NC1=CC=C(C=C1Br)C(F)(F)F","-","-","-","N1-[2-Bromo-4-(trifluoromethyl)phenyl]acetamide","144.0 - 146.0","?C","418.0","K","","","","","","-","","-","","-","","-"
"BrC1=C(Br)C(=O)N(N=C1)C1=CC=CC=C1","-","-","-","4,5-Dibromo-2-phenyl-2,3-dihydropyridazin-3-one","143.0 - 144.0","?C","416.5","K","","","","","","-","","-","","-","","-"
"ClC1=C(SCC2=CC=CC=C2)C=NN(C1=O)C1=CC=CC=C1","-","-","-","5-(Benzylthio)-4-chloro-2-phenylpyridazin-3(2H)-one","138.0 - 140.0","?C","412.0","K","","","","","","-","","-","","-","","-"
"BrC1=C(SCC2=CC=CC=C2)C=NN(C1=O)C1=CC=CC=C1","-","-","-","5-(Benzylthio)-4-bromo-2-phenylpyridazin-3(2H)-one","137.0 - 138.0","?C","410.5","K","","","","","","-","","-","","-","","-"
"[O-][N+](=O)C1=CC=CN=C1OC1=CC(Cl)=CN=C1","-","-","-","2-[(5-Chloro-3-pyridyl)oxy]-3-nitropyridine","104.0 - 105.0","?C","377.5","K","","","","","","-","","-","","-","","-"
"NC(=O)C1=C(Cl)C2=C(S1)C=CC=C2","-","-","-","3-Chlorobenzo[b]thiophene-2-carboxamide","235.0 - 237.0","?C","509.0","K","","","","","","-","","-","","-","","-"
"COC1=CC=C(Cl)C(OC)=C1C(N)=O","-","-","-","3-Chloro-2,6-dimethoxybenzamide","156.0 - 158.0","?C","430.0","K","","","","","","-","","-","","-","","-"
"CC1=CC=C(C=C1)N1N=CC(Cl)=C(Cl)C1=O","-","-","-","4,5-Dichloro-2-(4-methylphenyl)-2,3-dihydropyridazin-3-one","144.0 - 146.0","?C","418.0","K","","","","","","-","","-","","-","","-"
"ClC1=CN=CC(OC2=NN=C(Cl)C=C2)=C1","-","-","-","3-Chloro-6-[(5-chloro-3-pyridyl)oxy]pyridazine","112.0 - 114.0","?C","386.0","K","","","","","","-","","-","","-","","-"
"[O-][N+](=O)C1=C(OC2=CC=C(F)C=C2)N=CC=C1","-","-","-","2-(4-Fluorophenoxy)-3-nitropyridine","98.0 - 99.0","?C","371.5","K","","","","","","-","","-","","-","","-"
"NC1=C(OC2=CC=C(F)C=C2F)N=CC=C1","-","-","-","2-(2,4-Difluorophenoxy)pyridin-3-amine","96.0 - 97.0","?C","369.5","K","","","","","","-","","-","","-","","-"
"[O-][N+](=O)C1=C(OC2=CC=CC=C2F)N=CC=C1","-","-","-","2-(2-Fluorophenoxy)-3-nitropyridine","90.0 - 92.0","?C","364.0","K","","","","","","-","","-","","-","","-"
"[O-][N+](=O)C1=CC(C#N)=C(SC2=CC=C(Cl)C=C2)C=C1","-","-","-","2-[(4-Chlorophenyl)thio]-5-nitrobenzonitrile","167.0 - 168.0","?C","440.5","K","","","","","","-","","-","","-","","-"
"COC(=O)C1=CC=CC=C1C(=O)C1=CC(C)=C(O)C(C)=C1","-","-","-","Methyl 2-(4-hydroxy-3,5-dimethylbenzoyl)benzoate","155.0 - 157.0","?C","429.0","K","","","","","","-","","-","","-","","-"
"NC1=NN=C(SC2=C(C=C(C=C2)[N+]([O-])=O)C#N)S1","-","-","-","2-[(5-Amino-1,3,4-thiadiazol-2-yl)thio]-5-nitrobenzonitrile","245.0 - 246.0","?C","518.5","K","","","","","","-","","-","","-","","-"
"COC1=CC=C(OC2=CC=C(C=C2C(Cl)=O)[N+]([O-])=O)C=C1","-","-","-","2-(4-Methoxyphenoxy)-5-nitrobenzene-1-carbonyl chloride","91.0 - 93.0","?C","365.0","K","","","","","","-","","-","","-","","-"
"CCOC(=O)C1=C(N)N2N=C(SC)N=C2N=C1","-","-","-","Ethyl 7-amino-2-(methylthio)[1,2,4]triazolo[1,5-a]pyrimidine-6-carboxylate","211.0 - 213.0","?C","485.0","K","","","","","","-","","-","","-","","-"
"CSC1=NN2C(=N1)N=CC(C(O)=O)=C2N","-","-","-","7-Amino-2-(methylthio)[1,2,4]triazolo[1,5-a]pyrimidine-6-carboxylic acid","278.0 - 281.0","?C","552.5","K","","","","","","-","","-","","-","","-"
"OC(=O)C1=C(SC2=CC=CC=C2)N=CC=C1","-","-","-","2-(Phenylthio)nicotinic acid","165.0 - 167.0","?C","439.0","K","","","","","","-","","-","","-","","-"