"SMILES","CASRN","EXTERNALID","N","NAME","Melting Point","UNIT {Melting Point}","Melting Point {measured, converted}","UNIT {Melting Point}","Dataset","comment (property)","comment (chemical)","measurement method","Pressure","UNIT {Pressure}","Som set numeric condition","UNIT {Som set numeric condition}","Resp set numeric condition","UNIT {Resp set numeric condition}","Quality code","UNIT {Quality code}"
"C\C(=N\O)C1=CC=CS1","-","-","-","1-(2-Thienyl)ethan-1-one oxime","113.0 - 114.0","?C","386.5","K","","","","","","-","","-","","-","","-"
"N#CC1=CC=CC(=C1)N1CCCC1","-","-","-","3-Pyrrolidin-1-ylbenzonitrile","84.0 - 85.0","?C","357.5","K","","","","","","-","","-","","-","","-"
"CC1=NN(C(C)=C1)C1=CC=C(Cl)N=N1","-","-","-","3-Chloro-6-(3,5-dimethyl-1H-pyrazol-1-yl)pyridazine","112.0 - 114.0","?C","386.0","K","","","","","","-","","-","","-","","-"
"CN1N=C(C)C(N=C=O)=C1C","-","-","-","4-Isocyanato-1,3,5-trimethyl-1H-pyrazole","36.0 - 40.0","?C","311.0","K","","","","","","-","","-","","-","","-"
"CC1=C(C=NN1C1=CC=CC=C1)N=C=O","-","-","-","4-Isocyanato-5-methyl-1-phenyl-1H-pyrazole","56.0 - 60.0","?C","331.0","K","","","","","","-","","-","","-","","-"
"O=C=NC1=CC(=CC=C1)N1C=CC=C1","-","-","-","1-(3-Isocyanatophenyl)-1H-pyrrole","46.0 - 47.0","?C","319.5","K","","","","","","-","","-","","-","","-"
"O=C=NC1=CC=C(C=C1)N1C=CC=C1","-","-","-","1-(4-Isocyanatophenyl)-1H-pyrrole","65.0 - 66.0","?C","338.5","K","","","","","","-","","-","","-","","-"
"CC1=NC(=NO1)C1=CC=C(C=O)C=C1","-","-","-","4-(5-Methyl-1,2,4-oxadiazol-3-yl)benzaldehyde","115.0","?C","388.0","K","","","","","","-","","-","","-","","-"
"NC1=CC=CC=C1C1=CN=CO1","-","-","-","2-(1,3-Oxazol-5-yl)aniline","54.0 - 56.0","?C","328.0","K","","","","","","-","","-","","-","","-"
"OC(=O)C1=CC(=CC=C1)N1CCCC1","-","-","-","3-Pyrrolidin-1-ylbenzoic acid","215.0 - 217.0","?C","489.0","K","","","","","","-","","-","","-","","-"
"CC1=NC(=CS1)C1=CC=C(C=C1)C(O)=O","-","-","-","4-(2-Methyl-1,3-thiazol-4-yl)benzoic acid","263.0 - 268.0","?C","538.5","K","","","","","","-","","-","","-","","-"
"CN1C(=CC2=C1C=CS2)C(O)=O","-","-","-","4-Methyl-4H-thieno[3,2-b]pyrrole-5-carboxylic acid","154.0 - 156.0","?C","428.0","K","","","","","","-","","-","","-","","-"
"CN1C(CO)=CC2=C1C=CS2","-","-","-","(4-Methyl-4H-thieno[3,2-b]pyrrol-5-yl)methanol","103.0 - 104.0","?C","376.5","K","","","","","","-","","-","","-","","-"
"OC(=O)C1=CC=CC(=C1)C1=CN=CN=C1","-","-","-","3-Pyrimidin-5-ylbenzoic acid","244.0 - 245.0","?C","517.5","K","","","","","","-","","-","","-","","-"
"O=CC1=CC=C(C=C1)C1=CN=CN=C1","-","-","-","4-Pyrimidin-5-ylbenzaldehyde","147.0 - 148.0","?C","420.5","K","","","","","","-","","-","","-","","-"
"OCC1=CC=C(C=C1)C1=CN=CN=C1","-","-","-","(4-Pyrimidin-5-ylphenyl)methanol","127.0 - 130.0","?C","401.5","K","","","","","","-","","-","","-","","-"
"FC(F)(F)C1=CC=C(C=C1)C1=NC(=CS1)C(Cl)=O","-","-","-","2-[4-(Trifluoromethyl)phenyl]-1,3-thiazole-4-carbonyl chloride","96.0 - 98.0","?C","370.0","K","","","","","","-","","-","","-","","-"
"CCN1C(C)=NC(=C1I)[N+]([O-])=O","-","-","-","1-Ethyl-5-iodo-2-methyl-4-nitro-1H-imidazole","210.0 - 212.0","?C","484.0","K","","","","","","-","","-","","-","","-"
"CC1=NC(=CS1)C1=CC(=CC=C1)S(Cl)(=O)=O","-","-","-","3-(2-Methyl-1,3-thiazol-4-yl)benzenesulfonyl chloride","116.0 - 118.0","?C","390.0","K","","","","","","-","","-","","-","","-"
"CNCC1=C(C)N=C2C=CC=CN12","-","-","-","N-Methyl-N-[(2-methylimidazo[1,2-a]pyridin-3-yl)methyl]amine","73.0 - 75.0","?C","347.0","K","","","","","","-","","-","","-","","-"
"NCC1=CC=C(C=C1)N1CCCC1","-","-","-","[4-(1-Pyrrolidinyl)phenyl]methanamine","37.0 - 44.0","?C","313.5","K","","","","","","-","","-","","-","","-"
"OCC1=CC=CC(=C1)C1=CN=CN=C1","-","-","-","(3-Pyrimidin-5-ylphenyl)methanol","65.0 - 66.0","?C","338.5","K","","","","","","-","","-","","-","","-"
"CN1C(C=O)=CC2=C1C=CS2","-","-","-","4-Methyl-4H-thieno[3,2-b]pyrrole-5-carbaldehyde","63.0 - 64.0","?C","336.5","K","","","","","","-","","-","","-","","-"
"NC1=CC=C(C=C1)C1SCCS1","-","-","-","4-(1,3-Dithiolan-2-yl)aniline","57.0 - 59.0","?C","331.0","K","","","","","","-","","-","","-","","-"
"NC1=CC=C(Cl)C=C1C(=O)C1=CC=CC(O)=C1","-","-","-","(2-Amino-5-chlorophenyl)(3-hydroxyphenyl)methanone","190.0 - 192.0","?C","464.0","K","","","","","","-","","-","","-","","-"
"CC1=C(C2=CC=NN2)C(=NO1)C1=CC=CC=C1","-","-","-","5-Methyl-3-phenyl-4-(1H-pyrazol-5-yl)isoxazole","125.0 - 128.0","?C","399.5","K","","","","","","-","","-","","-","","-"
"CN(C)C1=CC=C(C=C1)C1CC(=O)CC(=O)C1","-","-","-","5-[4-(Dimethylamino)phenyl]cyclohexane-1,3-dione","201.0 - 204.0","?C","475.5","K","","","","","","-","","-","","-","","-"
"CC1=CC=C(N)C(=C1)C(=O)NN","-","-","-","2-Amino-5-methylbenzene-1-carbohydrazide","133.0 - 134.0","?C","406.5","K","","","","","","-","","-","","-","","-"
"COC1=CC=C(Br)C(=C1)C(=O)NN","-","-","-","2-Bromo-5-methoxybenzene-1-carbohydrazide","165.0 - 166.0","?C","438.5","K","","","","","","-","","-","","-","","-"
"CC1=CC=C(C=C1)S(=O)(=O)CCCl","-","-","-","1-[(2-Chloroethyl)sulfonyl]-4-methylbenzene","77.0 - 78.0","?C","350.5","K","","","","","","-","","-","","-","","-"
"CC(C)(C)OC(=O)NC(CO)C1=CC=CC=C1","-","-","-","(R)-(-)-N-Boc-2-phenylglycinol","136.0 - 139.0","?C","410.5","K","","","","","","-","","-","","-","","-"
"NC(C#N)C(N)=O","-","-","-","2-Amino-2-cyanoacetamide","120.0 - 124.0","?C","395.0","K","","","","","","-","","-","","-","","-"
"BrC1=C(Br)C(=O)C(Br)=C(Br)C1=O","-","-","-","Tetrabromo-p-benzoquinone","292.0 - 294.0","?C","566.0","K","","","","","","-","","-","","-","","-"
"OC1=CC=C(C=C1)C(C#N)N1CCOCC1","-","-","-","2-(4-Hydroxyphenyl)-2-morpholinoacetonitrile","148.0 - 150.0","?C","422.0","K","","","","","","-","","-","","-","","-"
"OC1=C2C=CC=CC2=CC=C1CN1CCCCC1","-","-","-","2-(Piperidinomethyl)-1-naphthol","134.0 - 136.0","?C","408.0","K","","","","","","-","","-","","-","","-"
"CC1=C(SC(=N1)C1=CC=C(Cl)C=C1)C(Cl)=O","-","-","-","2-(4-Chlorophenyl)-4-methyl-1,3-thiazole-5-carbonyl chloride","180.0 - 183.0","?C","454.5","K","","","","","","-","","-","","-","","-"
"CN1CCN(CC1)C1=CC(=CC=C1)C(O)=O","-","-","-","3-(4-Methylpiperazin-1-yl)benzoic acid","187.0 - 190.0","?C","461.5","K","","","","","","-","","-","","-","","-"
"O=CC1=CC=C(OC2=CC=CN=C2)O1","-","-","-","5-(Pyrid-3-yloxy)-2-furaldehyde","72.0 - 73.0","?C","345.5","K","","","","","","-","","-","","-","","-"
"NC(=S)NCCC1=CC=CC=C1","-","-","-","N-Phenethylthiourea","150.0 - 152.0","?C","424.0","K","","","","","","-","","-","","-","","-"
"CCCNC(N)=S","-","-","-","N-Propylthiourea","120.0 - 123.0","?C","394.5","K","","","","","","-","","-","","-","","-"
"CC1=CC(C)=C(NC(N)=S)C(C)=C1","-","-","-","N-Mesitylthiourea","231.0","?C","504.0","K","","","","","","-","","-","","-","","-"
"NC(=S)NC1=C(F)C(F)=C(F)C=C1","-","-","-","N-(2,3,4-Trifluorophenyl)thiourea","162.0 - 165.0","?C","436.5","K","","","","","","-","","-","","-","","-"
"CC1=CC=C(NC(N)=S)C=C1","-","-","-","N-(4-Methylphenyl)thiourea","186.0 - 188.0","?C","460.0","K","","","","","","-","","-","","-","","-"
"OC(=O)C1=C(CS(=O)C2=CC=CC=C2)C=CC=C1","-","-","-","2-[(Phenylsulfinyl)methyl]benzoic acid","185.0 - 187.0","?C","459.0","K","","","","","","-","","-","","-","","-"
"CCOC1=CC=CC2=C1OC(=O)C(=C2)C(O)=O","-","-","-","8-Ethoxy-2-oxo-2H-chromene-3-carboxylic acid","190.0 - 192.0","?C","464.0","K","","","","","","-","","-","","-","","-"
"ClC1=C2C(=O)OC(=O)C2=CC=C1","-","-","-","3-Chlorophthalic anhydride","123.0 - 126.0","?C","397.5","K","","","","","","-","","-","","-","","-"
"ON=CC(=O)NC1=CC(Cl)=CC=C1Cl","-","-","-","N1-(2,5-Dichlorophenyl)-2-hydroxyiminoacetamide","198.0 - 201.0","?C","472.5","K","","","","","","-","","-","","-","","-"
"FC(F)(F)C1=C(NC(=O)CCl)C=CC=C1","-","-","-","N1-[2-(Trifluoromethyl)phenyl]-2-chloroacetamide","92.0 - 94.0","?C","366.0","K","","","","","","-","","-","","-","","-"
"ClCC1=NN=C(O1)C1=CC2=C(C=CC=C2)C=C1","-","-","-","2-(Chloromethyl)-5-(2-naphthyl)-1,3,4-oxadiazole","128.0 - 130.0","?C","402.0","K","","","","","","-","","-","","-","","-"
"NC(CS(=O)(=O)C1=CC=C(Cl)C=C1)=NO","-","-","-","2-[(4-Chlorophenyl)sulfonyl]-N'-hydroxyethanimidamide","202.0 - 205.0","?C","476.5","K","","","","","","-","","-","","-","","-"
"CNC(=O)CC#N","-","-","-","N1-Methyl-2-cyanoacetamide","82.0 - 84.0","?C","356.0","K","","","","","","-","","-","","-","","-"
"CN1C=C2C(=N1)N=C(C)N(N)C2=O","-","-","-","5-Amino-2,6-dimethyl-4,5-dihydro-2H-pyrazolo[3,4-d]pyrimidin-4-one","147.0 - 148.0","?C","420.5","K","","","","","","-","","-","","-","","-"
"ClC1=CC=C(CSSCC2=CC=C(Cl)C=C2)C=C1","-","-","-","di(4-Chlorobenzyl) disulfide","59.0 - 61.0","?C","333.0","K","","","","","","-","","-","","-","","-"
"CC(C)N1C=C(N=C1C)[N+]([O-])=O","-","-","-","1-Isopropyl-2-methyl-4-nitro-1H-imidazole","86.0","?C","359.0","K","","","","","","-","","-","","-","","-"
"[O-][N+](=O)C1=NNC(=O)C(Cl)=C1Cl","-","-","-","4,5-Dichloro-6-nitro-2,3-dihydropyridazin-3-one","184.0 - 186.0","?C","458.0","K","","","","","","-","","-","","-","","-"
"COCC1=NC(S)=NC(O)=C1","-","-","-","2-Mercapto-6-(methoxymethyl)pyrimidin-4-ol","220.0 - 223.0","?C","494.5","K","","","","","","-","","-","","-","","-"
"NC1=NC(=CS1)C1=CC=C(O)C=C1","-","-","-","4-(2-Amino-1,3-thiazol-4-yl)phenol","206.0 - 208.0","?C","480.0","K","","","","","","-","","-","","-","","-"
"COC1=C(C=CC=C1)C1OC(=O)CC1C(O)=O","-","-","-","2-(2-Methoxyphenyl)-5-oxotetrahydrofuran-3-carboxylic acid","124.0 - 125.0","?C","397.5","K","","","","","","-","","-","","-","","-"
"OCC1=NOC(=C1)C1=CC=CC=C1","-","-","-","(5-Phenylisoxazol-3-yl)methanol","99.0 - 102.0","?C","373.5","K","","","","","","-","","-","","-","","-"
"O=CC1=CC=CC(=C1)C1=CN=CN=C1","-","-","-","3-Pyrimidin-5-ylbenzaldehyde","148.0 - 149.0","?C","421.5","K","","","","","","-","","-","","-","","-"
"CNCC1=CC=C(C=C1)C1=CN=CN=C1","-","-","-","N-Methyl-N-(4-pyrimidin-5-ylbenzyl)amine","45.0 - 46.0","?C","318.5","K","","","","","","-","","-","","-","","-"
"CC1=C(N=NN1CC1=CC=C(Br)C=C1)C(O)=O","-","-","-","1-(4-Bromobenzyl)-5-methyl-1H-1,2,3-triazole-4-carboxylic acid","192.0 - 193.0","?C","465.5","K","","","","","","-","","-","","-","","-"
"COC1=CC=C(OC2=CC=C(C=C2[N+]([O-])=O)C(N)=NO)C=C1","-","-","-","N'-Hydroxy-4-(4-methoxyphenoxy)-3-nitrobenzenecarboximidamide","174.0 - 177.0","?C","448.5","K","","","","","","-","","-","","-","","-"
"NC(=NO)C1=CC=C(OC2=C(F)C=C(F)C=C2)C(=C1)[N+]([O-])=O","-","-","-","4-(2,4-Difluorophenoxy)-N'-hydroxy-3-nitrobenzenecarboximidamide","164.0 - 167.0","?C","438.5","K","","","","","","-","","-","","-","","-"
"CC1=CC(OC2=CC=C(C=C2[N+]([O-])=O)C(N)=NO)=CC(C)=C1Cl","-","-","-","4-(4-Chloro-3,5-dimethylphenoxy)-N'-hydroxy-3-nitrobenzenecarboximidamide","183.0 - 185.0","?C","457.0","K","","","","","","-","","-","","-","","-"
"CC(=O)NC(CC1=CC=C(Br)C=C1)C(O)=O","-","-","-","2-(Acetylamino)-3-(4-bromophenyl)propanoic acid","191.0 - 193.0","?C","465.0","K","","","","","","-","","-","","-","","-"
"OC(=O)C=CC1=CC=C(SC2=CC=C(Br)C=C2)C(=C1)[N+]([O-])=O","-","-","-","3-{4-[(4-Bromophenyl)thio]-3-nitrophenyl}acrylic acid","232.0 - 234.0","?C","506.0","K","","","","","","-","","-","","-","","-"
"CC1(C)OC(=O)OC1=C","-","-","-","4,4-Dimethyl-5-methylidene-1,3-dioxolan-2-one","26.0 - 30.0","?C","301.0","K","","","","","","-","","-","","-","","-"
"CNCC1=CC=C(C=C1)C1=NOC(C)=N1","-","-","-","N-Methyl-N-[4-(5-methyl-1,2,4-oxadiazol-3-yl)benzyl]amine","51.0 - 53.0","?C","325.0","K","","","","","","-","","-","","-","","-"
"CC(C)S(=O)(=O)CC#N","-","-","-","2-(Isopropylsulfonyl)acetonitrile","32.0 - 34.0","?C","306.0","K","","","","","","-","","-","","-","","-"
"CC1=CC2=C(CCC3=NON=C23)N=N1","-","-","-","8-Methyl-4,5-dihydro[1,2,5]oxadiazolo[3,4-f]cinnoline","143.0 - 145.0","?C","417.0","K","","","","","","-","","-","","-","","-"
"CCOC(CNC(=O)C(N)=O)OCC","-","-","-","N1-(2,2-Diethoxyethyl)ethanediamide","138.0 - 140.0","?C","412.0","K","","","","","","-","","-","","-","","-"
"ClC1=NC=CC=C1C(=O)NCC1=CC=CC=C1","-","-","-","N3-Benzyl-2-chloronicotinamide","120.0","?C","393.0","K","","","","","","-","","-","","-","","-"
"O=C(C=CC1=CSC=C1)C1=CC=CC=C1","-","-","-","1-Phenyl-3-(3-thienyl)prop-2-en-1-one","88.0","?C","361.0","K","","","","","","-","","-","","-","","-"
"ClS(=O)(=O)C1=CC=C2OCOC2=C1","-","-","-","1,3-Benzodioxole-5-sulfonyl chloride","48.0 - 51.0","?C","322.5","K","","","","","","-","","-","","-","","-"
"OC(=O)C1=CC2=CC=CN=C2S1","-","-","-","Thieno[2,3-b]pyridine-2-carboxylic acid","293.0 - 294.0","?C","566.5","K","","","","","","-","","-","","-","","-"
"O=CC1=CC2=CC=CN=C2S1","-","-","-","Thieno[2,3-b]pyridine-2-carbaldehyde","142.0 - 143.0","?C","415.5","K","","","","","","-","","-","","-","","-"
"OCC1=CC2=CC=CN=C2S1","-","-","-","Thieno[2,3-b]pyridin-2-ylmethanol","47.0 - 49.0","?C","321.0","K","","","","","","-","","-","","-","","-"
"CNCC1=CC=C(C=C1)N1C=CN=C1","-","-","-","N-[4-(1H-Imidazol-1-yl)benzyl]-N-methylamine","67.0 - 69.0","?C","341.0","K","","","","","","-","","-","","-","","-"
"COC(=O)C1=CC(CN2CCOCC2)=CC=C1","-","-","-","Methyl 3-(morpholin-4-ylmethyl)benzoate","46.0 - 47.0","?C","319.5","K","","","","","","-","","-","","-","","-"
"SC1=C(Cl)C(Cl)=CC(Cl)=C1Cl","-","-","-","2,3,5,6-Tetrachlorobenzene-1-thiol","105.0 - 107.0","?C","379.0","K","","","","","","-","","-","","-","","-"
"ClC1=CC=C2SC(Br)=C(C=O)C2=C1","-","-","-","2-Bromo-5-chloro-1-benzothiophene-3-carbaldehyde","139.0 - 140.0","?C","412.5","K","","","","","","-","","-","","-","","-"
"NC1=C(C=C(Cl)N=C1Cl)C(F)(F)F","-","-","-","2,6-Dichloro-4-(trifluoromethyl)pyridin-3-amine","50.0 - 51.0","?C","323.5","K","","","","","","-","","-","","-","","-"
"ON=C1CCCSC1","-","-","-","thian-3-one oxime","103.0 - 104.0","?C","376.5","K","","","","","","-","","-","","-","","-"
"CCC1=CC=C(C=C1)C(=O)NN","-","-","-","4-Ethylbenzene-1-carbohydrazide","84.0 - 87.0","?C","358.5","K","","","","","","-","","-","","-","","-"
"[O-][N+](=O)C1=C(Cl)C(Cl)=C(Cl)C(Cl)=C1NCC1=CC=CC=C1","-","-","-","N1-Benzyl-2,3,4,5-tetrachloro-6-nitroaniline","96.0 - 97.0","?C","369.5","K","","","","","","-","","-","","-","","-"
"CCOC(=O)C1=CC2=CC=CN=C2S1","-","-","-","Ethyl thieno[2,3-b]pyridine-2-carboxylate","59.0 - 60.0","?C","332.5","K","","","","","","-","","-","","-","","-"
"CC1=NC(CO)=C(C)O1","-","-","-","(2,5-Dimethyl-1,3-oxazol-4-yl)methanol","73.0","?C","346.0","K","","","","","","-","","-","","-","","-"
"ClC(=O)C1=NOC(=C1)C1=CC=CC=C1","-","-","-","5-Phenylisoxazole-3-carbonyl chloride","86.0 - 88.0","?C","360.0","K","","","","","","-","","-","","-","","-"
"O=CC1=CN2C=CN=C2C=C1","-","-","-","Imidazo[1,2-a]pyridine-6-carbaldehyde","152.0","?C","425.0","K","","","","","","-","","-","","-","","-"
"BrC1=NC(=CC=C1)N1CCOCC1","-","-","-","4-(6-Bromopyrid-2-yl)morpholine","50.0 - 51.0","?C","323.5","K","","","","","","-","","-","","-","","-"
"CC1=NC(=CS1)C1=CC=C(C=O)C=C1","-","-","-","4-(2-Methyl-1,3-thiazol-4-yl)benzaldehyde","101.0 - 102.0","?C","374.5","K","","","","","","-","","-","","-","","-"
"CN1C=CC2=C1C=CC(=C2)[N+]([O-])=O","-","-","-","1-Methyl-5-nitro-1H-indole","167.0 - 169.0","?C","441.0","K","","","","","","-","","-","","-","","-"
"NC1=CC=CC(=C1)C1=CN=CN=C1","-","-","-","3-Pyrimidin-5-ylaniline","163.0 - 166.0","?C","437.5","K","","","","","","-","","-","","-","","-"
"N#CC1=CC=C(OCCN2CCOCC2)C=C1","-","-","-","4-(2-Morpholin-4-ylethoxy)benzonitrile","87.0 - 90.0","?C","361.5","K","","","","","","-","","-","","-","","-"
"COC(=O)C1=CC2=C(C=CO2)N1C","-","-","-","Methyl 4-methyl-4H-furo[3,2-b]pyrrole-5-carboxylate","81.0 - 82.0","?C","354.5","K","","","","","","-","","-","","-","","-"
"OC(=O)C1=CC=C(CN2CCCCC2)C=C1","-","-","-","4-(Piperidinomethyl)benzoic acid","286.0 - 293.0","?C","562.5","K","","","","","","-","","-","","-","","-"
"CN1CCN(CC2=CC=C(CO)C=C2)CC1","-","-","-","{4-[(4-Methylpiperazin-1-yl)methyl]phenyl}methanol","96.0 - 98.0","?C","370.0","K","","","","","","-","","-","","-","","-"
"FC(F)(F)C1=CC=C(C=C1)C1=NC(=CS1)N=C=O","-","-","-","4-Isocyanato-2-[4-(trifluoromethyl)phenyl]-1,3-thiazole","51.0","?C","324.0","K","","","","","","-","","-","","-","","-"
"CC(=O)C1=CC=C(C=C1)C1CC1Cl","-","-","-","1-[4-(2-Chlorocyclopropyl)phenyl]ethan-1-one","45.0","?C","318.0","K","","","","","","-","","-","","-","","-"
"CC(=O)C1=CC=C(C=C1)C1CC1(Cl)Cl","-","-","-","1-[4-(2,2-Dichlorocyclopropyl)phenyl]ethan-1-one","35.0","?C","308.0","K","","","","","","-","","-","","-","","-"
"NC(=O)CC1=C(Cl)C=C(F)C=C1","-","-","-","2-(2-Chloro-4-fluorophenyl)acetamide","171.0 - 173.0","?C","445.0","K","","","","","","-","","-","","-","","-"
"CC1=CC=C(C=C1)P(=S)(C1=CC=C(C)C=C1)C1=CC=C(C)C=C1","-","-","-","Tri(4-methylphenyl)phosphine sulfide","185.0 - 186.0","?C","458.5","K","","","","","","-","","-","","-","","-"
"ClCC1=NC(=NO1)C1=CC=C(OCC2=CC=C(Cl)C=C2)C=C1","-","-","-","3-{4-[(4-Chlorobenzyl)oxy]phenyl}-5-(chloromethyl)-1,2,4-oxadiazole","118.0","?C","391.0","K","","","","","","-","","-","","-","","-"
"CC1=C(SC2=C1C=CC=C2)C(=O)C1=CC=CC=C1C(O)=O","-","-","-","2-[(3-Methylbenzo[b]thiophen-2-yl)carbonyl]benzoic acid","181.0 - 183.0","?C","455.0","K","","","","","","-","","-","","-","","-"
"COC1=CC=C2N=C(C=C(Cl)C2=C1)C1=CC=CC=C1","-","-","-","4-Chloro-6-methoxy-2-phenylquinoline","121.0 - 124.0","?C","395.5","K","","","","","","-","","-","","-","","-"
"OC1=CC=C2C=CC=CC2=C1CN1CCCCC1","-","-","-","1-(Piperidinomethyl)-2-naphthol","93.0 - 94.0","?C","366.5","K","","","","","","-","","-","","-","","-"
"[O-][N+](=O)C1=CC(Br)=CN=C1Cl","-","-","-","5-Bromo-2-chloro-3-nitropyridine","64.0 - 67.0","?C","338.5","K","","","","","","-","","-","","-","","-"
"COC1=CC=C(C=C1)N1C(=S)NC(=O)C2=C1N=CC=C2","-","-","-","1-(4-Methoxyphenyl)-2-thioxo-1,2,3,4-tetrahydropyrido[2,3-d]pyrimidin-4-one","261.0 - 263.0","?C","535.0","K","","","","","","-","","-","","-","","-"
"CSC1=NC(=NC(N)=N1)C1=NC=CN=C1","-","-","-","4-(Methylthio)-6-pyrazin-2-yl-1,3,5-triazin-2-amine","215.0","?C","488.0","K","","","","","","-","","-","","-","","-"
"CC1=CC(C)=C(CCl)C=C1CCl","-","-","-","1,5-bis(chloromethyl)-2,4-dimethylbenzene","97.0 - 99.0","?C","371.0","K","","","","","","-","","-","","-","","-"
"SC1=NNC(=O)N1C1CCCCC1","-","-","-","4-Cyclohexyl-5-sulfanyl-4H-1,2,4-triazol-3-ol","190.0 - 194.0","?C","465.0","K","","","","","","-","","-","","-","","-"
"CSC1=CC=CC=C1C(O)=O","-","-","-","2-(Methylthio)benzoic acid","170.0 - 173.0","?C","444.5","K","","","","","","-","","-","","-","","-"
"OCC1=CC(CN2CCCCC2)=CC=C1","-","-","-","[3-(Piperidinomethyl)phenyl]methanol","67.0 - 69.0","?C","341.0","K","","","","","","-","","-","","-","","-"
"CN1C(S)=NN=C1CC1=NC(=NO1)C1=NC=CN=C1","-","-","-","4-Methyl-5-[(3-pyrazin-2-yl-1,2,4-oxadiazol-5-yl)methyl]-4H-1,2,4-triazole-3-thiol","203.0 - 204.0","?C","476.5","K","","","","","","-","","-","","-","","-"
"CN1C(S)=NN=C1CC1=CSC=C1","-","-","-","4-Methyl-5-(3-thienylmethyl)-4H-1,2,4-triazole-3-thiol","130.0 - 133.0","?C","404.5","K","","","","","","-","","-","","-","","-"
"CC1=CC(=CC(Cl)=C1N)C(O)=O","-","-","-","4-Amino-3-chloro-5-methylbenzoic acid","274.0 - 277.0","?C","548.5","K","","","","","","-","","-","","-","","-"
"NC1=CC=CN=C1[N+]([O-])=O","-","-","-","2-Nitropyridin-3-amine","194.0 - 196.0","?C","468.0","K","","","","","","-","","-","","-","","-"
"CC(=O)C1=CC(=C(Br)S1)[N+]([O-])=O","-","-","-","1-(5-Bromo-4-nitro-2-thienyl)ethan-1-one","105.0 - 106.0","?C","378.5","K","","","","","","-","","-","","-","","-"
"CCOC(=O)C1=C(OC=N1)C1=CC=CC=C1","-","-","-","Ethyl 5-phenyl-1,3-oxazole-4-carboxylate","32.0 - 35.0","?C","306.5","K","","","","","","-","","-","","-","","-"
"CC1=C(C=C(F)C=C1Cl)S(N)(=O)=O","-","-","-","3-Chloro-5-fluoro-2-methylbenzenesulfonamide","118.0 - 120.0","?C","392.0","K","","","","","","-","","-","","-","","-"
"OC(=O)C1=CC=C(CN2C=NC=N2)C=C1","-","-","-","4-(1H-1,2,4-Triazol-1-ylmethyl)benzoic acid","227.0 - 229.0","?C","501.0","K","","","","","","-","","-","","-","","-"
"NNC1=NC=CC(=N1)C(F)(F)F","-","-","-","1-[4-(Trifluoromethyl)pyrimidin-2-yl]hydrazine","100.0 - 101.0","?C","373.5","K","","","","","","-","","-","","-","","-"