{"Citation":{"tml_elements":["TRCRefID","eType","eSourceType","sAuthor","sPubName","yrPubYr","dateCit","sTitle","sAbstract","sDOI","sIDNum","sVol","sPage"],"sAuthor":["hill, K. D.","fahr, M."],"TRCRefID":{"yrYrPub":"2011","nAuthorn":"0","tml_elements":["yrYrPub","sAuthor1","sAuthor2","nAuthorn"],"sAuthor1":"hil","sAuthor2":"fah"},"sAbstract":"Interest in the triple points of neon isotopes has recently arisen as a result of the multi-institute project to understand how variations in the isotopic composition of natural neon influence the triple-point temperature of a particular sample. Given the challenges in determining with sufficiently low uncertainty both the relative isotopic concentrations, particularly of 22Ne relative to 20Ne, and the temperature differences among cells filled from different gas sources in order to determine the sensitivity coefficient with adequate confidence, modeling of the isotopic influence becomes an attractive alternative for correcting the triple points of  natural  neon samples to a common composition. The modeling requires, among other things, knowledge of the triple-point temperatures of 20Ne and 22Ne. The triple points of these pure neon isotopes have utility in their own right as secondary reference temperatures on the ITS-90, and one or both of these could replace  natural  neon in a revised International Temperature Scale or approximation to the ITS. The neon isotope triple-point temperatures (on the IPTS-68) reported by Furukawa, Kemp, and Sakurai in various publications from 1972 to 1986 predate the ITS-90, and so there is utility in contemporary measurements (on the ITS-90) with gas samples of recent production. At NRC, we find the triple point of 20Ne to be at 24.54230 K (13.80 mK below the triple point of  natural  neon) and that of 22Ne to be at 24.68889 K (132.79 mK above the triple point of  natural  neon), assuming the reference sample of  natural  neon realizes the ideal ITS-90 temperature of 24.5561 K.","sTitle":"Triple-Point Temperatures of 20Ne and 22Ne","sDOI":"10.1007/s10765-011-0939-5","eSourceType":"Original","sVol":"32","eType":"journal","sPage":"173-188","dateCit":"2020-09-29","sIDNum":"1-2","sPubName":"Int. J. Thermophys.","yrPubYr":"2011"},"Compound":[{"sFormulaMolec":"Ne","Sample":[{"purity":[{"nPurityMassDigits":2,"tml_elements":["nStep","nPurityMass","nPurityMassDigits","eAnalMeth"],"nStep":1,"nPurityMass":98,"eAnalMeth":["Estimated by the compiler"]}],"tml_elements":["nSampleNm","eSource","purity"],"eSource":"Commercial source","nSampleNm":1}],"tml_elements":["RegNum","sStandardInChI","sStandardInChIKey","sCommonName","sFormulaMolec","Sample"],"sCommonName":["neon-20"],"sStandardInChIKey":"GKAOGPIIYCISHV-IGMARMGPSA-N","sStandardInChI":"InChI=1S/Ne/i1+0","RegNum":{"nOrgNum":1,"tml_elements":["nOrgNum"]}},{"RegNum":{"tml_elements":["nOrgNum"],"nOrgNum":2},"sStandardInChI":"InChI=1S/Ne/i1+2","sStandardInChIKey":"GKAOGPIIYCISHV-NJFSPNSNSA-N","tml_elements":["RegNum","sStandardInChI","sStandardInChIKey","sCommonName","sFormulaMolec","Sample"],"Sample":[{"tml_elements":["nSampleNm","eSource","purity"],"purity":[{"eAnalMeth":["Estimated by the compiler"],"nPurityMass":98,"nStep":1,"tml_elements":["nStep","nPurityMass","nPurityMassDigits","eAnalMeth"],"nPurityMassDigits":2}],"eSource":"Commercial source","nSampleNm":1}],"sCommonName":["neon-22","neon, isotope of mass 22"],"sFormulaMolec":"Ne"}],"THERMOML_MD5_CHECKSUM":"fcadef7c84e5a776eb817b6f3dfa3335","PureOrMixtureData":[{"Component":[{"tml_elements":["RegNum","nSampleNm"],"nSampleNm":1,"RegNum":{"tml_elements":["nOrgNum"],"nOrgNum":1}}],"PhaseID":[{"tml_elements":["ePhase"],"ePhase":"Crystal"},{"tml_elements":["ePhase"],"ePhase":"Liquid"},{"tml_elements":["ePhase"],"ePhase":"Gas"}],"tml_elements":["nPureOrMixtureDataNumber","Component","eExpPurpose","sCompiler","sContributor","dateDateAdded","Property","PhaseID","NumValues"],"sContributor":"TRC","eExpPurpose":"Principal objective of the work","Property":[{"Property-MethodID":{"PropertyGroup":{"tml_elements":["PhaseTransition"],"PhaseTransition":{"sMethodName":"triple pt. cell","ePropName":"Triple point temperature, K","tml_elements":["ePropName","sMethodName"]}},"tml_elements":["PropertyGroup"]},"CombinedUncertainty":{"nCombUncertLevOfConfid":95,"eCombUncertEvalMethod":"Propagation of evaluated standard uncertainties","tml_elements":["nCombUncertAssessNum","sCombUncertEvaluator","eCombUncertEvalMethod","nCombUncertLevOfConfid"],"sCombUncertEvaluator":"Data file compiler","nCombUncertAssessNum":1},"tml_elements":["nPropNumber","Property-MethodID","PropPhaseID","ePresentation","CombinedUncertainty"],"ePresentation":"Direct value, X","nPropNumber":1,"PropPhaseID":{"ePropPhase":"Crystal","tml_elements":["ePropPhase"]}}],"NumValues":[{"VariableValue":[],"PropertyValue":[{"tml_elements":["nPropNumber","nPropValue","nPropDigits","CombinedUncertainty"],"nPropDigits":6,"nPropNumber":1,"CombinedUncertainty":{"nCombExpandUncertValue":8e-05,"tml_elements":["nCombUncertAssessNum","nCombExpandUncertValue"],"nCombUncertAssessNum":1},"nPropValue":24.5423}],"tml_elements":["PropertyValue"]}],"sCompiler":"MRM","dateDateAdded":"6/21/2011","nPureOrMixtureDataNumber":1},{"NumValues":[{"PropertyValue":[{"tml_elements":["nPropNumber","nPropValue","nPropDigits","CombinedUncertainty"],"nPropDigits":7,"nPropNumber":1,"nPropValue":24.68889,"CombinedUncertainty":{"nCombUncertAssessNum":1,"nCombExpandUncertValue":8e-05,"tml_elements":["nCombUncertAssessNum","nCombExpandUncertValue"]}}],"tml_elements":["PropertyValue"],"VariableValue":[]}],"sCompiler":"MRM","dateDateAdded":"6/21/2011","nPureOrMixtureDataNumber":2,"Property":[{"tml_elements":["nPropNumber","Property-MethodID","PropPhaseID","ePresentation","CombinedUncertainty"],"ePresentation":"Direct value, X","nPropNumber":1,"PropPhaseID":{"tml_elements":["ePropPhase"],"ePropPhase":"Crystal"},"Property-MethodID":{"tml_elements":["PropertyGroup"],"PropertyGroup":{"PhaseTransition":{"ePropName":"Triple point temperature, K","sMethodName":"triple pt. cell","tml_elements":["ePropName","sMethodName"]},"tml_elements":["PhaseTransition"]}},"CombinedUncertainty":{"nCombUncertAssessNum":1,"sCombUncertEvaluator":"Data file compiler","tml_elements":["nCombUncertAssessNum","sCombUncertEvaluator","eCombUncertEvalMethod","nCombUncertLevOfConfid"],"nCombUncertLevOfConfid":95,"eCombUncertEvalMethod":"Propagation of evaluated standard uncertainties"}}],"eExpPurpose":"Principal objective of the work","sContributor":"TRC","Component":[{"RegNum":{"nOrgNum":2,"tml_elements":["nOrgNum"]},"nSampleNm":1,"tml_elements":["RegNum","nSampleNm"]}],"PhaseID":[{"tml_elements":["ePhase"],"ePhase":"Crystal"},{"tml_elements":["ePhase"],"ePhase":"Liquid"},{"ePhase":"Gas","tml_elements":["ePhase"]}],"tml_elements":["nPureOrMixtureDataNumber","Component","eExpPurpose","sCompiler","sContributor","dateDateAdded","Property","PhaseID","NumValues"]}],"tml_elements":["Version","Citation","Compound","PureOrMixtureData"],"Version":{"nVersionMajor":2,"nVersionMinor":0,"tml_elements":["nVersionMajor","nVersionMinor"]}}